#     Embedding Potential
    
  CRYSTAL 
    
  PRIMVEC    
  11.9289999468    0.0    0.0    
  0.0    7.70400002591    0.0    
  -1.0119367296    0.0    5.72728907408    
  PRIMCOORD    
  3    1    
  O    7.11163030392    3.85200001727    1.35278570509    
  O    4.81736964288    3.85200001727    -1.35278570509    
  U    5.9644999734    3.85200001727    0.0    
  BEGIN_BLOCK_DATAGRID_2D    
  2d_datagrid_from_pbcpy    
  BEGIN_DATAGRID_2D    
  401    401    
  0.0    3.85200001839    0.0    
  23.8579998936    0.0    0.0    
  -2.02387346425    0.0    11.4545781468    
  0.0207459308233    -0.129527558492    0.00452278879786    -0.0207673085591    0.00361560145055    
  0.0597974051787    0.0787310349242    0.11945510152    0.103219106457    0.0912588289298    
  0.142123180076    0.140239826977    0.126164126632    0.116624356437    0.157501782715    
  0.14295017179    0.131407542936    0.161439160884    0.108280846527    0.233752718594    
  0.143357360003    0.177756784502    0.219674318046    0.210443655447    0.13034091967    
  0.220729311364    0.193964326733    0.21507953231    0.207433104532    0.199024484244    
  0.340612588705    0.309021743341    0.0755084827392    0.3693342272    0.263972443715    
  0.274177431449    0.128764073776    0.567850897054    0.191743872939    0.36413740767    
  0.281513813199    0.471700203456    0.342957079841    0.488226277174    0.352663981179    
  0.453764814571    0.462338810809    0.59473793428    0.505439568206    0.621521111755    
  0.565140768889    0.647725626962    0.490473702022    0.53601311865    0.494416754938    
  0.611623549613    0.697795481597    0.755756656387    0.803643384657    0.790871497296    
  0.7800047389    0.839189894697    0.824788114126    0.897729104392    0.920355568385    
  0.901757048773    0.965530061742    0.984085083007    0.957171504396    1.02521274567    
  1.06073284521    1.0502173453    1.07271721914    1.09070256181    1.14014155093    
  1.14374279071    1.19324297926    1.18274025026    1.20599638509    1.24118658078    
  1.23710172187    1.26275455409    1.27078632565    1.27968650475    1.28304892973    
  1.31086725447    1.32294850401    1.32381931568    1.3170421051    1.28807400832    
  1.30850693092    1.34010115936    1.32915791494    1.35716330089    1.30801524853    
  1.38365871682    1.34966946849    1.33117635323    1.20903676203    1.39172111909    
  1.27397987493    1.39224337126    1.20718377671    1.33092714001    1.35026945515    
  1.38300909764    1.30808372871    1.35686963053    1.32910080344    1.33985832552    
  1.30834646759    1.28777422633    1.31707311381    1.32342654798    1.32256104063    
  1.31091989438    1.28266529587    1.27963548055    1.27047703741    1.26240893438    
  1.23689273186    1.24073906344    1.20596974008    1.18227659689    1.19323550034    
  1.14331560698    1.14017597111    1.09061176056    1.07262227251    1.0501650483    
  1.0605703737    1.02491203568    0.957076362603    0.98398643759    0.965562699353    
  0.90167876893    0.920541888399    0.897840067997    0.824857794432    0.839503533758    
  0.780002174273    0.791268707996    0.803452398997    0.756507077293    0.697888737017    
  0.612011695778    0.494480672924    0.536679516976    0.491054828906    0.647899008468    
  0.564992524963    0.620902746311    0.504849081829    0.594787341422    0.462683119242    
  0.45363067861    0.352571750102    0.48973139937    0.341847578493    0.472633458584    
  0.281150901801    0.364673399926    0.190799646486    0.56929547596    0.126557696057    
  0.274470338277    0.262012972245    0.370194882571    0.0746089181173    0.309481515987    
  0.33962739697    0.199158258987    0.206022406168    0.214493359419    0.193167690333    
  0.220253966581    0.130300590305    0.210274582639    0.219519321916    0.176844437417    
  0.143084043269    0.233123019101    0.107673988669    0.161600606682    0.130867950934    
  0.142525954888    0.157221069792    0.116558589246    0.126196162646    0.14020588122    
  0.141711176822    0.0916234548953    0.102904491681    0.119534082033    0.0790038697449    
  0.0596287138279    0.00307114421613    -0.0214159539579    0.00474605454874    -0.131300815377    
  0.0207459308233    -0.129527558492    0.00452278879786    -0.0207673085591    0.00361560145055    
  0.0597974051787    0.0787310349242    0.11945510152    0.103219106457    0.0912588289298    
  0.142123180076    0.140239826977    0.126164126632    0.116624356437    0.157501782715    
  0.14295017179    0.131407542936    0.161439160884    0.108280846527    0.233752718594    
  0.143357360003    0.177756784502    0.219674318046    0.210443655447    0.13034091967    
  0.220729311364    0.193964326733    0.21507953231    0.207433104532    0.199024484244    
  0.340612588705    0.309021743341    0.0755084827392    0.3693342272    0.263972443715    
  0.274177431449    0.128764073776    0.567850897054    0.191743872939    0.36413740767    
  0.281513813199    0.471700203456    0.342957079841    0.488226277174    0.352663981179    
  0.453764814571    0.462338810809    0.59473793428    0.505439568206    0.621521111755    
  0.565140768889    0.647725626962    0.490473702022    0.53601311865    0.494416754938    
  0.611623549613    0.697795481597    0.755756656387    0.803643384657    0.790871497296    
  0.7800047389    0.839189894697    0.824788114126    0.897729104392    0.920355568385    
  0.901757048773    0.965530061742    0.984085083007    0.957171504396    1.02521274567    
  1.06073284521    1.0502173453    1.07271721914    1.09070256181    1.14014155093    
  1.14374279071    1.19324297926    1.18274025026    1.20599638509    1.24118658078    
  1.23710172187    1.26275455409    1.27078632565    1.27968650475    1.28304892973    
  1.31086725447    1.32294850401    1.32381931568    1.3170421051    1.28807400832    
  1.30850693092    1.34010115936    1.32915791494    1.35716330089    1.30801524853    
  1.38365871682    1.34966946849    1.33117635323    1.20903676203    1.39172111909    
  1.27397987493    1.39224337126    1.20718377671    1.33092714001    1.35026945515    
  1.38300909764    1.30808372871    1.35686963053    1.32910080344    1.33985832552    
  1.30834646759    1.28777422633    1.31707311381    1.32342654798    1.32256104063    
  1.31091989438    1.28266529587    1.27963548055    1.27047703741    1.26240893438    
  1.23689273186    1.24073906344    1.20596974008    1.18227659689    1.19323550034    
  1.14331560698    1.14017597111    1.09061176056    1.07262227251    1.0501650483    
  1.0605703737    1.02491203568    0.957076362603    0.98398643759    0.965562699353    
  0.90167876893    0.920541888399    0.897840067997    0.824857794432    0.839503533758    
  0.780002174273    0.791268707996    0.803452398997    0.756507077293    0.697888737017    
  0.612011695778    0.494480672924    0.536679516976    0.491054828906    0.647899008468    
  0.564992524963    0.620902746311    0.504849081829    0.594787341422    0.462683119242    
  0.45363067861    0.352571750102    0.48973139937    0.341847578493    0.472633458584    
  0.281150901801    0.364673399926    0.190799646486    0.56929547596    0.126557696057    
  0.274470338277    0.262012972245    0.370194882571    0.0746089181173    0.309481515987    
  0.33962739697    0.199158258987    0.206022406168    0.214493359419    0.193167690333    
  0.220253966581    0.130300590305    0.210274582639    0.219519321916    0.176844437417    
  0.143084043269    0.233123019101    0.107673988669    0.161600606682    0.130867950934    
  0.142525954888    0.157221069792    0.116558589246    0.126196162646    0.14020588122    
  0.141711176822    0.0916234548953    0.102904491681    0.119534082033    0.0790038697449    
  0.0596287138279    0.00307114421613    -0.0214159539579    0.00474605454874    -0.131300815377    
  0.0207459308233    -0.00545463106022    -0.0970000415995    0.0115430335602    0.0198776957881    
  0.0541880208131    0.0896616758511    0.0611980769964    0.101691594707    0.124073133734    
  0.112692463999    0.162257870988    0.135007775117    0.140270898946    0.148323106408    
  0.159511984952    0.14980063174    0.154639489475    0.130314456088    0.13077328321    
  0.221012759774    0.123482318    0.189189788212    0.190278459106    0.182069327514    
  0.167843648205    0.232964052589    0.210255909133    0.187616558683    0.185321920704    
  0.193067428453    0.334117910138    0.178282373452    0.298490670525    0.122407377805    
  0.416486361932    0.236108260092    0.290433500645    0.32294529944    0.315123282001    
  0.341706485964    0.383328845905    0.390597051505    0.420619997302    0.333044579451    
  0.427490167197    0.478820880395    0.485454761845    0.530225678608    0.531551916121    
  0.59888533105    0.602796633106    0.6133919943    0.54539576533    0.52291956644    
  0.582035328866    0.555620215921    0.672426814873    0.691162523398    0.753393979664    
  0.791758351308    0.77853859071    0.838209310793    0.845318656667    0.85638825958    
  0.894911612441    0.93076953695    0.931754580338    0.979489422537    0.996640996976    
  1.01045698296    1.03441175772    1.06323699842    1.10246667752    1.08910136167    
  1.1280605784    1.1402535423    1.18815887842    1.20660752551    1.22036020095    
  1.2603165541    1.2656606629    1.28231357156    1.27129764443    1.31006573717    
  1.29347858746    1.30754115481    1.31761826492    1.33152323412    1.29838252246    
  1.33469842389    1.32363604181    1.3568975263    1.30146393332    1.38621928672    
  1.29872514077    1.38079740913    1.3163381968    1.37303317865    1.36466397983    
  1.34255828407    1.26235767259    1.38049232551    1.21639736323    1.3791399959    
  1.34662928571    1.31958013832    1.33639183959    1.33590630876    1.33989584684    
  1.3092352373    1.31999652126    1.28569182389    1.35711180342    1.29357142834    
  1.30584448036    1.29986684581    1.28998289625    1.27420126081    1.28802791403    
  1.26744247489    1.23432241722    1.21960329766    1.21666448578    1.1785006803    
  1.17362233047    1.13208226133    1.12090785277    1.10712111006    1.07606560254    
  1.04392625973    0.992319139445    1.00667668551    0.986978845081    0.947377429799    
  0.937342175211    0.930468848284    0.873317794681    0.882450174625    0.858924144433    
  0.817420052567    0.79912849374    0.796056818169    0.760623514049    0.783774977081    
  0.675265089315    0.667523818009    0.546812405066    0.519807448421    0.515084839298    
  0.565229397649    0.597349593836    0.606218068907    0.541050857045    0.558083352644    
  0.500363573352    0.478432573324    0.418308763089    0.502742247727    0.347790545998    
  0.38319800228    0.311869638242    0.469965325294    0.134368879878    0.524272108069    
  0.12797897838    0.360986892048    0.179712947202    0.400236085371    0.138363777705    
  0.327556558228    0.162836464861    0.246808991552    0.241498372167    0.332713029058    
  0.194614486966    0.170925462398    0.201589013283    0.278057309798    0.196378478166    
  0.189509747435    0.173874065548    0.178320932405    0.174584029082    0.19770454673    
  0.114278862501    0.172600226241    0.0671666217979    0.179999223316    0.117489647658    
  0.146422379082    0.120681886377    0.0911234323467    0.0844146573635    0.0733431429067    
  0.0965206584881    0.026464963766    0.0190091497371    -0.0331803322773    -0.0372700521809    
  -0.079156055371    -0.00545463106022    -0.0970000415995    0.0115430335602    0.0198776957882    
  0.0541880208131    0.0896616758511    0.0611980769964    0.101691594707    0.124073133734    
  0.112692463999    0.162257870988    0.135007775117    0.140270898946    0.148323106408    
  0.159511984952    0.14980063174    0.154639489475    0.130314456088    0.13077328321    
  0.221012759774    0.123482318    0.189189788212    0.190278459106    0.182069327514    
  0.167843648205    0.232964052589    0.210255909133    0.187616558683    0.185321920704    
  0.193067428453    0.334117910137    0.178282373452    0.298490670525    0.122407377805    
  0.416486361932    0.236108260092    0.290433500645    0.32294529944    0.315123282001    
  0.341706485964    0.383328845905    0.390597051505    0.420619997302    0.333044579451    
  0.427490167197    0.478820880395    0.485454761845    0.530225678608    0.531551916121    
  0.59888533105    0.602796633106    0.6133919943    0.54539576533    0.52291956644    
  0.582035328866    0.555620215921    0.672426814873    0.691162523398    0.753393979664    
  0.791758351308    0.77853859071    0.838209310793    0.845318656667    0.85638825958    
  0.894911612441    0.93076953695    0.931754580338    0.979489422537    0.996640996976    
  1.01045698296    1.03441175772    1.06323699842    1.10246667752    1.08910136167    
  1.1280605784    1.1402535423    1.18815887842    1.20660752551    1.22036020095    
  1.2603165541    1.2656606629    1.28231357156    1.27129764443    1.31006573717    
  1.29347858746    1.30754115481    1.31761826492    1.33152323412    1.29838252246    
  1.33469842389    1.32363604181    1.3568975263    1.30146393332    1.38621928672    
  1.29872514077    1.38079740913    1.3163381968    1.37303317865    1.36466397983    
  1.34255828407    1.26235767259    1.38049232551    1.21639736323    1.3791399959    
  1.34662928571    1.31958013832    1.33639183959    1.33590630876    1.33989584684    
  1.3092352373    1.31999652126    1.28569182389    1.35711180342    1.29357142834    
  1.30584448036    1.29986684581    1.28998289625    1.27420126081    1.28802791403    
  1.26744247489    1.23432241722    1.21960329766    1.21666448578    1.1785006803    
  1.17362233047    1.13208226133    1.12090785277    1.10712111006    1.07606560254    
  1.04392625973    0.992319139445    1.00667668551    0.986978845081    0.947377429799    
  0.937342175211    0.930468848284    0.873317794681    0.882450174625    0.858924144433    
  0.817420052567    0.79912849374    0.796056818169    0.760623514049    0.783774977081    
  0.675265089315    0.667523818009    0.546812405066    0.519807448421    0.515084839298    
  0.565229397649    0.597349593836    0.606218068907    0.541050857045    0.558083352644    
  0.500363573352    0.478432573324    0.418308763089    0.502742247727    0.347790545998    
  0.38319800228    0.311869638242    0.469965325294    0.134368879878    0.524272108069    
  0.12797897838    0.360986892048    0.179712947202    0.400236085371    0.138363777705    
  0.327556558228    0.162836464861    0.246808991552    0.241498372167    0.332713029058    
  0.194614486966    0.170925462398    0.201589013283    0.278057309798    0.196378478166    
  0.189509747435    0.173874065548    0.178320932405    0.174584029082    0.19770454673    
  0.114278862501    0.172600226241    0.0671666217979    0.179999223316    0.117489647658    
  0.146422379082    0.120681886377    0.0911234323467    0.0844146573635    0.0733431429067    
  0.0965206584881    0.026464963766    0.0190091497371    -0.0331803322773    -0.0372700521809    
  -0.079156055371    -0.00545463106022    -0.0566314749908    -0.0248115036628    -0.00336840912799    
  0.0353688696198    0.0934989008835    0.119873064298    0.0838561592311    0.112034542871    
  0.133884269463    0.149875545963    0.157766121083    0.131522325292    0.15347618276    
  0.168306825415    0.133925992841    0.147612043104    0.160828228211    0.12434743322    
  0.175492361438    0.156640746233    0.142786613614    0.174226882209    0.141003555877    
  0.198233438857    0.217669352569    0.211381248005    0.219008639334    0.181695459192    
  0.184795537567    0.191190813555    0.238279931285    0.086041536354    0.504421955316    
  -0.0393615004249    0.459558775969    0.236353921713    0.345537582184    0.152933379473    
  0.385954148153    0.310882675469    0.437814481979    0.287823873659    0.492544179765    
  0.257657107889    0.48691712591    0.448762150649    0.518335761623    0.447370159174    
  0.580161433118    0.549595312949    0.640790919067    0.567400145862    0.609915881673    
  0.533199100281    0.60496510637    0.541066250848    0.652282775637    0.661617593357    
  0.713484398027    0.786789198862    0.790242953533    0.833797531239    0.854523172151    
  0.854966677073    0.866660071885    0.940923941065    0.923523185549    0.957258154648    
  1.01427155368    1.01176171814    1.01115859716    1.06168353089    1.11097875848    
  1.10069506022    1.13754892413    1.15192560154    1.18697181912    1.22154202999    
  1.23622783914    1.25910515317    1.29096843945    1.29284844507    1.28052034689    
  1.33149110951    1.30810483035    1.31525337579    1.31683340629    1.33213386115    
  1.32045384028    1.36070742411    1.33465106303    1.35970311411    1.30485020958    
  1.39449873955    1.30961871825    1.34155370826    1.32016688466    1.38819395071    
  1.43160926684    1.30320542347    1.29525541547    1.34072765317    1.35545525295    
  1.39557101178    1.31583119241    1.29413392957    1.36157869473    1.31945145508    
  1.32202027791    1.3014687348    1.33454261976    1.29604147747    1.34973644871    
  1.27537530325    1.29990886345    1.28897280062    1.29435793397    1.27387550505    
  1.28322853909    1.26338987056    1.24212883694    1.20442602112    1.21950519151    
  1.18838664407    1.14711423811    1.13753558396    1.09423710344    1.10072571084    
  1.06970886411    1.04036813069    0.972780637628    0.989066887859    0.997364032315    
  0.943204855996    0.903390952817    0.937254111776    0.862509966408    0.851348716712    
  0.878254219219    0.815349340672    0.80300565039    0.805981722634    0.735243782285    
  0.759550386064    0.700083284815    0.673768799984    0.637365855525    0.493761120667    
  0.526108432261    0.466871988532    0.60631643593    0.593547062247    0.597561696967    
  0.516091181175    0.55812328699    0.501964037351    0.51192428176    0.41541773172    
  0.442140154361    0.305598339139    0.398785183843    0.485451864166    0.212043274343    
  0.363858520777    0.267362218858    0.380519309953    0.24362519923    0.269309261073    
  0.323153486503    0.291412026608    0.112790384988    0.250900927147    0.246974252326    
  0.385160456957    0.242358322677    0.167582521404    0.246480116593    0.299504852888    
  0.143253463124    0.223220006013    0.205370410354    0.129370602384    0.229541670094    
  0.166736015481    0.12934005183    0.185576216601    0.0453758896581    0.189285226733    
  0.106496749869    0.124934708323    0.101323591043    0.0840221329268    0.0789120098696    
  0.0446886010071    0.0746043370665    0.0239468418433    0.0240809511995    -0.0229319163731    
  -0.0591069420605    -0.0251705955987    -0.0566314749908    -0.0248115036628    -0.00336840912799    
  0.0353688696198    0.0934989008835    0.119873064298    0.0838561592311    0.112034542871    
  0.133884269463    0.149875545963    0.157766121083    0.131522325292    0.15347618276    
  0.168306825415    0.133925992841    0.147612043104    0.160828228211    0.12434743322    
  0.175492361438    0.156640746233    0.142786613614    0.174226882209    0.141003555877    
  0.198233438857    0.217669352569    0.211381248005    0.219008639334    0.181695459192    
  0.184795537567    0.191190813555    0.238279931285    0.086041536354    0.504421955316    
  -0.0393615004249    0.459558775969    0.236353921713    0.345537582184    0.152933379473    
  0.385954148153    0.310882675469    0.437814481979    0.287823873659    0.492544179765    
  0.257657107889    0.48691712591    0.448762150649    0.518335761623    0.447370159174    
  0.580161433118    0.549595312949    0.640790919067    0.567400145862    0.609915881673    
  0.533199100281    0.60496510637    0.541066250848    0.652282775637    0.661617593357    
  0.713484398027    0.786789198862    0.790242953533    0.833797531239    0.854523172151    
  0.854966677073    0.866660071885    0.940923941065    0.923523185549    0.957258154648    
  1.01427155368    1.01176171814    1.01115859716    1.06168353089    1.11097875848    
  1.10069506022    1.13754892413    1.15192560154    1.18697181912    1.22154202999    
  1.23622783914    1.25910515317    1.29096843945    1.29284844507    1.28052034689    
  1.33149110951    1.30810483035    1.31525337579    1.31683340629    1.33213386115    
  1.32045384028    1.36070742411    1.33465106303    1.35970311411    1.30485020958    
  1.39449873955    1.30961871825    1.34155370826    1.32016688466    1.38819395071    
  1.43160926684    1.30320542347    1.29525541547    1.34072765317    1.35545525295    
  1.39557101178    1.31583119241    1.29413392957    1.36157869473    1.31945145508    
  1.32202027791    1.3014687348    1.33454261976    1.29604147747    1.34973644871    
  1.27537530325    1.29990886345    1.28897280062    1.29435793397    1.27387550505    
  1.28322853909    1.26338987056    1.24212883694    1.20442602112    1.21950519151    
  1.18838664407    1.14711423811    1.13753558396    1.09423710344    1.10072571084    
  1.06970886411    1.04036813069    0.972780637628    0.989066887859    0.997364032315    
  0.943204855996    0.903390952817    0.937254111776    0.862509966408    0.851348716712    
  0.878254219219    0.815349340672    0.80300565039    0.805981722634    0.735243782285    
  0.759550386064    0.700083284815    0.673768799984    0.637365855525    0.493761120667    
  0.526108432261    0.466871988532    0.60631643593    0.593547062247    0.597561696967    
  0.516091181175    0.55812328699    0.501964037351    0.51192428176    0.41541773172    
  0.442140154361    0.305598339139    0.398785183843    0.485451864166    0.212043274343    
  0.363858520777    0.267362218858    0.380519309953    0.24362519923    0.269309261073    
  0.323153486503    0.291412026608    0.112790384988    0.250900927147    0.246974252326    
  0.385160456957    0.242358322677    0.167582521404    0.246480116593    0.299504852888    
  0.143253463124    0.223220006013    0.205370410354    0.129370602384    0.229541670094    
  0.166736015481    0.12934005183    0.185576216601    0.0453758896581    0.189285226733    
  0.106496749869    0.124934708323    0.101323591043    0.0840221329268    0.0789120098696    
  0.0446886010071    0.0746043370665    0.0239468418433    0.0240809511995    -0.0229319163731    
  -0.0591069420605    -0.0251705955987    -0.0566314749908    -0.0810540522329    0.0151308914657    
  -0.00730479963905    0.0216670448789    0.0838423112103    0.149417669049    0.138441661278    
  0.177091447019    0.128232109624    0.179783134751    0.127632286042    0.128486221835    
  0.153347946112    0.114170017296    0.141716681731    0.117401917072    0.147591013377    
  0.134814472738    0.1809131166    0.093597296781    0.188852216189    0.131222338896    
  0.117111573391    0.221914630719    0.203534458838    0.197308192151    0.203063519519    
  0.154115443672    0.181100862538    0.172870326489    0.191880048613    0.117153470857    
  0.463536215143    0.050730431681    0.327073577861    0.253397531906    0.207603281431    
  0.256430276609    0.344639274797    0.241202218058    0.355214413532    0.29760175305    
  0.474827632688    0.357029229015    0.440268572698    0.360631696499    0.518212714448    
  0.428507355807    0.589937594312    0.520324447279    0.62199991123    0.596464855589    
  0.62062875222    0.584432905859    0.500879412615    0.562249394753    0.665956483448    
  0.6780615737    0.738429876353    0.770992232354    0.796617446995    0.836086666388    
  0.822759075429    0.912063812881    0.886763905988    0.894947811096    0.966106112963    
  0.949558160633    0.971420889806    1.03814706579    1.0515694372    1.0467299404    
  1.08322085249    1.11578660454    1.17695114777    1.1831454186    1.20310517882    
  1.21595280809    1.24066846424    1.24480793221    1.29614224208    1.28270956742    
  1.28930511395    1.33096384187    1.31677937076    1.34484288089    1.33402101351    
  1.33770478449    1.35903067432    1.33902385411    1.33066614249    1.357285033    
  1.3473199144    1.36807381736    1.33506044787    1.31843911806    1.37405358571    
  1.31819046628    1.3317124018    1.31683468619    1.38227135412    1.31308054288    
  1.51063366429    1.3056397276    1.30353292688    1.33940919206    1.36118869409    
  1.30657616894    1.2950710455    1.3216213229    1.32555767027    1.29126017321    
  1.29080938582    1.28326496614    1.31029738143    1.28536590826    1.28149364218    
  1.26453119487    1.24904356171    1.23766783781    1.2429899709    1.19804207362    
  1.19898560778    1.19230201014    1.13357430214    1.16103038138    1.08711757763    
  1.06922528125    1.0401258489    1.03148567611    1.04993828722    0.994586891522    
  0.949376293352    0.983695279812    0.909739582929    0.890820412697    0.917634015656    
  0.851242679665    0.84706349597    0.842332121963    0.789239354262    0.806833368392    
  0.785362111251    0.718141890012    0.785268366873    0.651452309591    0.657014042179    
  0.496956718116    0.483360308579    0.446025008008    0.542777810811    0.594891346776    
  0.621030802554    0.534646628465    0.584116500006    0.493531637892    0.533708872263    
  0.346060970256    0.544112628845    0.357455662377    0.441527443457    0.362126209397    
  0.377909926842    0.288848221488    0.409246142618    0.295350334043    0.401770658955    
  0.13433169571    0.436869343271    0.244207200156    0.297844386025    0.186773371549    
  0.223912416331    0.312616547902    0.311296831938    0.237826047386    0.182331310217    
  0.260157812036    0.110845709118    0.239268197209    0.219047016139    0.124353405068    
  0.208873864331    0.0784339273045    0.161158686386    0.144346488503    0.142374934047    
  0.0818762967698    0.088919229647    0.0796091581981    0.0816115325605    0.0651770438999    
  0.0770561037604    0.0685123757435    0.0244880896334    0.0470812799226    -0.0144142519715    
  -0.0204789703347    -0.0384320501317    -0.0350893152513    -0.0810540522329    0.0151308914657    
  -0.00730479963905    0.0216670448789    0.0838423112103    0.149417669049    0.138441661278    
  0.177091447019    0.128232109624    0.179783134751    0.127632286042    0.128486221835    
  0.153347946112    0.114170017296    0.141716681731    0.117401917072    0.147591013377    
  0.134814472738    0.1809131166    0.093597296781    0.188852216189    0.131222338896    
  0.117111573391    0.221914630719    0.203534458838    0.197308192151    0.203063519519    
  0.154115443672    0.181100862538    0.172870326489    0.191880048613    0.117153470857    
  0.463536215143    0.050730431681    0.327073577861    0.253397531906    0.207603281431    
  0.256430276609    0.344639274797    0.241202218058    0.355214413532    0.29760175305    
  0.474827632688    0.357029229015    0.440268572698    0.360631696499    0.518212714448    
  0.428507355807    0.589937594312    0.520324447279    0.62199991123    0.596464855589    
  0.62062875222    0.584432905859    0.500879412615    0.562249394753    0.665956483448    
  0.6780615737    0.738429876353    0.770992232354    0.796617446995    0.836086666388    
  0.822759075429    0.912063812881    0.886763905988    0.894947811096    0.966106112963    
  0.949558160633    0.971420889806    1.03814706579    1.0515694372    1.0467299404    
  1.08322085249    1.11578660454    1.17695114777    1.1831454186    1.20310517882    
  1.21595280809    1.24066846424    1.24480793221    1.29614224208    1.28270956742    
  1.28930511395    1.33096384187    1.31677937076    1.34484288089    1.33402101351    
  1.33770478449    1.35903067432    1.33902385411    1.33066614249    1.357285033    
  1.3473199144    1.36807381736    1.33506044787    1.31843911806    1.37405358571    
  1.31819046628    1.3317124018    1.31683468619    1.38227135412    1.31308054288    
  1.51063366429    1.3056397276    1.30353292688    1.33940919206    1.36118869409    
  1.30657616894    1.2950710455    1.3216213229    1.32555767027    1.29126017321    
  1.29080938582    1.28326496614    1.31029738143    1.28536590826    1.28149364218    
  1.26453119487    1.24904356171    1.23766783781    1.2429899709    1.19804207362    
  1.19898560778    1.19230201014    1.13357430214    1.16103038138    1.08711757763    
  1.06922528125    1.0401258489    1.03148567611    1.04993828722    0.994586891522    
  0.949376293352    0.983695279812    0.909739582929    0.890820412697    0.917634015656    
  0.851242679665    0.84706349597    0.842332121963    0.789239354262    0.806833368392    
  0.785362111251    0.718141890012    0.785268366873    0.651452309591    0.657014042179    
  0.496956718116    0.483360308579    0.446025008008    0.542777810811    0.594891346776    
  0.621030802554    0.534646628465    0.584116500006    0.493531637892    0.533708872263    
  0.346060970256    0.544112628845    0.357455662377    0.441527443457    0.362126209397    
  0.377909926842    0.288848221488    0.409246142618    0.295350334043    0.401770658955    
  0.13433169571    0.436869343271    0.244207200156    0.297844386025    0.186773371549    
  0.223912416331    0.312616547902    0.311296831938    0.237826047386    0.182331310217    
  0.260157812036    0.110845709118    0.239268197209    0.219047016139    0.124353405068    
  0.208873864331    0.0784339273045    0.161158686386    0.144346488503    0.142374934047    
  0.0818762967698    0.088919229647    0.0796091581981    0.0816115325605    0.0651770438999    
  0.0770561037604    0.0685123757435    0.0244880896334    0.0470812799226    -0.0144142519715    
  -0.0204789703347    -0.0384320501317    -0.0350893152513    -0.0810540522329    -0.0347183299548    