#     Embedding Potential
    
  CRYSTAL 
    
  PRIMVEC    
  11.9289999468    0.0    0.0    
  0.0    7.70400002591    0.0    
  -1.0119367296    0.0    5.72728907408    
  PRIMCOORD    
  3    1    
  O    7.11163030392    3.85200001727    1.35278570509    
  O    4.81736964288    3.85200001727    -1.35278570509    
  U    5.9644999734    3.85200001727    0.0    
  BEGIN_BLOCK_DATAGRID_2D    
  2d_datagrid_from_pbcpy    
  BEGIN_DATAGRID_2D    
  401    401    
  0.0    3.85200001839    0.0    
  23.8579998936    0.0    0.0    
  -2.02387346425    0.0    11.4545781468    
  -8.04951005188    -8.20007418209    -8.06678243596    -8.09337155792    -8.07073243567    
  -8.01676155827    -8.00043985832    -7.96273436944    -7.98235997149    -7.99807224129    
  -7.95130994381    -7.957658578    -7.97656710875    -7.99133561602    -7.95610102525    
  -7.97677974935    -7.99495681662    -7.97216025321    -8.03320877902    -7.91637046074    
  -8.01620970404    -7.99217558713    -7.96159830923    -7.98323611273    -8.07686999658    
  -8.00120105561    -8.0439135075    -8.04001832104    -8.06619426183    -8.09446871107    
  -7.97415677776    -8.02844061503    -8.28614165926    -8.01808661906    -8.15089925812    
  -8.16992710662    -8.34657472755    -7.94085515176    -8.35272345644    -8.21872839086    
  -8.34270103547    -8.19714770265    -8.37420904621    -8.28136389034    -8.47394148115    
  -8.43499613368    -8.49431581166    -8.4361740377    -8.60688401824    -8.58009005801    
  -8.73452061822    -8.75965114873    -9.03528182785    -9.11976492942    -9.30411673307    
  -9.3433875515    -9.42847585197    -9.5574371559    -9.71291116056    -9.94603486727    
  -10.1944769795    -10.3898802888    -10.6752200606    -10.8882610583    -11.1646399057    
  -11.492514169    -11.744733154    -12.0445732006    -12.3872287277    -12.6267039488    
  -12.8845050358    -13.1679933852    -13.3921354219    -13.5888695147    -13.7173912768    
  -13.8510416079    -13.8954495563    -13.95517782    -13.9365407215    -13.8629395054    
  -13.7884065373    -13.6480511979    -13.4942094664    -13.3140622483    -13.12011222    
  -12.8884720017    -12.6652963566    -12.4515496262    -12.2485526714    -12.0750174617    
  -11.8628072588    -11.6528061007    -11.5007536782    -11.3266728948    -11.2476999109    
  -11.0626317439    -11.0064334551    -10.9543620552    -11.0258152312    -10.8125660006    
  -10.9199953866    -10.8117064235    -11.026971036    -10.9535476797    -11.0044572354    
  -11.0615921775    -11.2456290865    -11.3246730382    -11.4982451148    -11.6502042944    
  -11.859879183    -12.0720069909    -12.2449878508    -12.4482129918    -12.661779682    
  -12.8843720536    -13.1163213752    -13.309842879    -13.4901757694    -13.6440147211    
  -13.7842281015    -13.8589867025    -13.9322161831    -13.9513357697    -13.8912439558    
  -13.8473634428    -13.7133585035    -13.5851046674    -13.3885044418    -13.1644724845    
  -12.8812553744    -12.6237775459    -12.3842523444    -12.0417460847    -11.7419477392    
  -11.4900066604    -11.1620302492    -10.8858629818    -10.6730104678    -10.3875688027    
  -10.1926105683    -9.94389105992    -9.71147733587    -9.55518145971    -9.42696948376    
  -9.34168499743    -9.30282191172    -9.11797345844    -9.03362907907    -8.75849793102    
  -8.73375860931    -8.57984745525    -8.60667485301    -8.43540470285    -8.49326674576    
  -8.43449343734    -8.47344692636    -8.27929871678    -8.37480631338    -8.19574254366    
  -8.34261582833    -8.21778836398    -8.35327708358    -7.93906047248    -8.34844240793    
  -8.16932867919    -8.15256793815    -8.01695305889    -8.28679768045    -8.02775015082    
  -7.97491894144    -8.09415666863    -8.06741623083    -8.04042909355    -8.0445476622    
  -8.00152342009    -8.07677921944    -7.98327349633    -7.96164787689    -7.99297610521    
  -8.0163896309    -7.91689633646    -8.03373324316    -7.97191952292    -7.99543429717    
  -7.977139489    -7.95632676079    -7.99134345737    -7.97648360874    -7.9576466227    
  -7.95168112368    -7.99767753708    -7.98264439356    -7.96263456268    -8.00014419233    
  -8.01691560169    -8.07126263514    -8.0940025453    -8.06656099494    -8.20182114735    
  -8.04951005188    -8.20007418209    -8.06678243596    -8.09337155792    -8.07073243567    
  -8.01676155827    -8.00043985832    -7.96273436944    -7.98235997149    -7.99807224129    
  -7.95130994381    -7.957658578    -7.97656710875    -7.99133561602    -7.95610102525    
  -7.97677974935    -7.99495681662    -7.97216025321    -8.03320877902    -7.91637046074    
  -8.01620970404    -7.99217558713    -7.96159830923    -7.98323611273    -8.07686999658    
  -8.00120105561    -8.0439135075    -8.04001832104    -8.06619426183    -8.09446871107    
  -7.97415677776    -8.02844061503    -8.28614165926    -8.01808661906    -8.15089925812    
  -8.16992710662    -8.34657472755    -7.94085515176    -8.35272345644    -8.21872839086    
  -8.34270103547    -8.19714770265    -8.37420904621    -8.28136389034    -8.47394148115    
  -8.43499613368    -8.49431581166    -8.4361740377    -8.60688401824    -8.58009005801    
  -8.73452061822    -8.75965114873    -9.03528182785    -9.11976492942    -9.30411673307    
  -9.3433875515    -9.42847585197    -9.5574371559    -9.71291116056    -9.94603486727    
  -10.1944769795    -10.3898802888    -10.6752200606    -10.8882610583    -11.1646399057    
  -11.492514169    -11.744733154    -12.0445732006    -12.3872287277    -12.6267039488    
  -12.8845050358    -13.1679933852    -13.3921354219    -13.5888695147    -13.7173912768    
  -13.8510416079    -13.8954495563    -13.95517782    -13.9365407215    -13.8629395054    
  -13.7884065373    -13.6480511979    -13.4942094664    -13.3140622483    -13.12011222    
  -12.8884720017    -12.6652963566    -12.4515496262    -12.2485526714    -12.0750174617    
  -11.8628072588    -11.6528061007    -11.5007536782    -11.3266728948    -11.2476999109    
  -11.0626317439    -11.0064334551    -10.9543620552    -11.0258152312    -10.8125660006    
  -10.9199953866    -10.8117064235    -11.026971036    -10.9535476797    -11.0044572354    
  -11.0615921775    -11.2456290865    -11.3246730382    -11.4982451148    -11.6502042944    
  -11.859879183    -12.0720069909    -12.2449878508    -12.4482129918    -12.661779682    
  -12.8843720536    -13.1163213752    -13.309842879    -13.4901757694    -13.6440147211    
  -13.7842281015    -13.8589867025    -13.9322161831    -13.9513357697    -13.8912439558    
  -13.8473634428    -13.7133585035    -13.5851046674    -13.3885044418    -13.1644724845    
  -12.8812553744    -12.6237775459    -12.3842523444    -12.0417460847    -11.7419477392    
  -11.4900066604    -11.1620302492    -10.8858629818    -10.6730104678    -10.3875688027    
  -10.1926105683    -9.94389105992    -9.71147733587    -9.55518145971    -9.42696948376    
  -9.34168499743    -9.30282191172    -9.11797345844    -9.03362907907    -8.75849793102    
  -8.73375860931    -8.57984745525    -8.60667485301    -8.43540470285    -8.49326674576    
  -8.43449343734    -8.47344692636    -8.27929871678    -8.37480631338    -8.19574254366    
  -8.34261582833    -8.21778836398    -8.35327708358    -7.93906047248    -8.34844240793    
  -8.16932867919    -8.15256793815    -8.01695305889    -8.28679768045    -8.02775015082    
  -7.97491894144    -8.09415666863    -8.06741623083    -8.04042909355    -8.0445476622    
  -8.00152342009    -8.07677921944    -7.98327349633    -7.96164787689    -7.99297610521    
  -8.0163896309    -7.91689633646    -8.03373324316    -7.97191952292    -7.99543429717    
  -7.977139489    -7.95632676079    -7.99134345737    -7.97648360874    -7.9576466227    
  -7.95168112368    -7.99767753708    -7.98264439356    -7.96263456268    -8.00014419233    
  -8.01691560169    -8.07126263514    -8.0940025453    -8.06656099494    -8.20182114735    
  -8.04951005188    -8.07575147173    -8.16763497107    -8.05995511935    -8.05300652624    
  -8.02055375458    -7.98738158745    -8.01857316125    -7.98120547226    -7.96232423339    
  -7.97757527975    -7.93223604787    -7.9640770516    -7.96378286071    -7.96109707813    
  -7.95571412678    -7.97169469932    -7.97366885739    -8.00540861431    -8.01302727226    
  -7.93162233795    -8.03881267956    -7.98370298769    -7.9941998777    -8.01507172539    
  -8.04311007962    -7.99301497296    -8.03198247061    -8.07218875977    -8.09337284284    
  -8.10590450888    -7.98653905085    -8.16552377861    -8.06998756034    -8.27235469643    
  -8.00628655888    -8.21650919793    -8.1940526237    -8.19559912133    -8.23992646486    
  -8.25253569059    -8.25312157101    -8.29140557053    -8.31068866342    -8.4517500031    
  -8.41546458574    -8.42751453957    -8.4900945244    -8.52100972662    -8.60259947794    
  -8.6261944855    -8.72208721566    -8.82108988196    -9.00948293645    -9.16414662244    
  -9.25009241537    -9.43547339573    -9.49255212285    -9.66356354885    -9.8076958833    
  -9.99285312819    -10.2470175127    -10.4455030118    -10.7130557082    -10.9918855803    
  -11.2564377304    -11.5340727133    -11.8534171158    -12.1285026198    -12.4315786288    
  -12.7297808528    -13.0036008606    -13.252100273    -13.4637162366    -13.6957809118    
  -13.8384466613    -13.966825907    -14.0156960575    -14.0488478003    -14.0415054152    
  -13.9642902108    -13.8808411956    -13.7492615626    -13.6135228082    -13.4018116999    
  -13.2253845632    -13.0043910845    -12.7794205379    -12.5481984066    -12.366554208    
  -12.1221746643    -11.9353896881    -11.7172069179    -11.6026563167    -11.3643674038    
  -11.3158523714    -11.1160203948    -11.0815340118    -10.9451476592    -10.8934017277    
  -10.8752431836    -10.9352710547    -10.8172118808    -11.0016927114    -10.8796138089    
  -10.9729679113    -11.080824296    -11.1644315235    -11.2844550858    -11.4183930373    
  -11.604334628    -11.7647409828    -11.9840948968    -12.1089445389    -12.3766036694    
  -12.572161887    -12.7848513908    -12.9948774507    -13.1983186999    -13.3535936935    
  -13.5186462329    -13.6659253935    -13.759461685    -13.801779576    -13.8369559903    
  -13.7948892289    -13.7453613654    -13.6225999524    -13.4621959883    -13.2826073331    
  -13.072445921    -12.8555931708    -12.5525774783    -12.2694638908    -11.9980230628    
  -11.6943152025    -11.3897576363    -11.1420786598    -10.8382313735    -10.5799000833    
  -10.3543930957    -10.1218420035    -9.89089913214    -9.70932304808    -9.48596169955    
  -9.41052049042    -9.24978119866    -9.21659063501    -9.103294807    -8.98025384431    
  -8.81384879977    -8.67599006207    -8.57090717956    -8.54848193001    -8.45165589884    
  -8.43657706099    -8.39199647869    -8.39125736517    -8.25099124175    -8.35462248551    
  -8.27194456112    -8.29958467804    -8.10104829432    -8.39907452886    -7.97417527501    
  -8.3378211703    -8.07425956404    -8.22691399628    -7.97953010807    -8.21616514922    
  -8.00329801766    -8.14578607002    -8.04099364456    -8.02683498929    -7.9174635202    
  -8.03870651843    -8.04677436441    -8.00171547724    -7.9120066608    -7.98154383115    
  -7.97732609886    -7.98284221241    -7.96916702085    -7.96448251221    -7.93367624986    
  -8.01005370948    -7.94526892066    -8.0447422766    -7.92641876863    -7.9838472368    
  -7.9502238283    -7.97163186098    -7.99721578448    -8.00029495989    -8.00809960872    
  -7.98201513594    -8.04956271413    -8.05492208858    -8.10545677082    -8.1083759411    
  -8.14956415677    -8.07575147173    -8.16763497107    -8.05995511935    -8.05300652624    
  -8.02055375458    -7.98738158745    -8.01857316125    -7.98120547226    -7.96232423339    
  -7.97757527975    -7.93223604787    -7.9640770516    -7.96378286071    -7.96109707813    
  -7.95571412678    -7.97169469932    -7.97366885739    -8.00540861431    -8.01302727226    
  -7.93162233795    -8.03881267956    -7.98370298769    -7.9941998777    -8.01507172539    
  -8.04311007962    -7.99301497296    -8.03198247061    -8.07218875977    -8.09337284284    
  -8.10590450888    -7.98653905085    -8.16552377861    -8.06998756034    -8.27235469643    
  -8.00628655888    -8.21650919793    -8.1940526237    -8.19559912133    -8.23992646486    
  -8.25253569059    -8.25312157101    -8.29140557053    -8.31068866342    -8.4517500031    
  -8.41546458574    -8.42751453957    -8.4900945244    -8.52100972662    -8.60259947794    
  -8.6261944855    -8.72208721566    -8.82108988196    -9.00948293645    -9.16414662244    
  -9.25009241537    -9.43547339573    -9.49255212285    -9.66356354885    -9.8076958833    
  -9.99285312819    -10.2470175127    -10.4455030118    -10.7130557082    -10.9918855803    
  -11.2564377304    -11.5340727133    -11.8534171158    -12.1285026198    -12.4315786288    
  -12.7297808528    -13.0036008606    -13.252100273    -13.4637162366    -13.6957809118    
  -13.8384466613    -13.966825907    -14.0156960575    -14.0488478003    -14.0415054152    
  -13.9642902108    -13.8808411956    -13.7492615626    -13.6135228082    -13.4018116999    
  -13.2253845632    -13.0043910845    -12.7794205379    -12.5481984066    -12.366554208    
  -12.1221746643    -11.9353896881    -11.7172069179    -11.6026563167    -11.3643674038    
  -11.3158523714    -11.1160203948    -11.0815340118    -10.9451476592    -10.8934017277    
  -10.8752431836    -10.9352710547    -10.8172118808    -11.0016927114    -10.8796138089    
  -10.9729679113    -11.080824296    -11.1644315235    -11.2844550858    -11.4183930373    
  -11.604334628    -11.7647409828    -11.9840948968    -12.1089445389    -12.3766036694    
  -12.572161887    -12.7848513908    -12.9948774507    -13.1983186999    -13.3535936935    
  -13.5186462329    -13.6659253935    -13.759461685    -13.801779576    -13.8369559903    
  -13.7948892289    -13.7453613654    -13.6225999524    -13.4621959883    -13.2826073331    
  -13.072445921    -12.8555931708    -12.5525774783    -12.2694638908    -11.9980230628    
  -11.6943152025    -11.3897576363    -11.1420786598    -10.8382313735    -10.5799000833    
  -10.3543930957    -10.1218420035    -9.89089913214    -9.70932304808    -9.48596169955    
  -9.41052049042    -9.24978119866    -9.21659063501    -9.103294807    -8.98025384431    
  -8.81384879977    -8.67599006207    -8.57090717956    -8.54848193001    -8.45165589884    
  -8.43657706099    -8.39199647869    -8.39125736517    -8.25099124175    -8.35462248551    
  -8.27194456112    -8.29958467804    -8.10104829432    -8.39907452886    -7.97417527501    
  -8.3378211703    -8.07425956404    -8.22691399628    -7.97953010807    -8.21616514922    
  -8.00329801766    -8.14578607002    -8.04099364456    -8.02683498929    -7.9174635202    
  -8.03870651843    -8.04677436441    -8.00171547724    -7.9120066608    -7.98154383115    
  -7.97732609886    -7.98284221241    -7.96916702085    -7.96448251221    -7.93367624986    
  -8.01005370948    -7.94526892066    -8.0447422766    -7.92641876863    -7.9838472368    
  -7.9502238283    -7.97163186098    -7.99721578448    -8.00029495989    -8.00809960872    
  -7.98201513594    -8.04956271413    -8.05492208858    -8.10545677082    -8.1083759411    
  -8.14956415677    -8.07575147173    -8.12690151759    -8.0954996005    -8.07502179564    
  -8.0377502704    -7.9815800986    -7.95759994946    -7.99645110928    -7.97150088239    
  -7.95325517868    -7.94124071571    -7.93769651736    -7.96864593165    -7.95179056974    
  -7.94245604398    -7.98279141854    -7.97551568337    -7.96927450904    -8.01333496821    
  -7.97044125819    -7.99831663277    -8.02203584074    -8.00140421064    -8.04644789135    
  -8.00212351434    -7.99676001637    -8.01835471916    -8.02728575604    -8.08248506385    
  -8.09861619723    -8.11287771609    -8.08785670425    -8.26366851955    -7.87041210771    
  -8.44096711104    -7.97057111375    -8.22419444919    -8.14747013419    -8.37477925382    
  -8.17895467572    -8.29396403699    -8.2100330808    -8.40644104603    -8.25193936807    
  -8.54130175525    -8.37126720451    -8.47394275611    -8.47479882816    -8.6227806866    
  -8.57430120118    -8.69731509176    -8.70754170287    -8.89227625747    -8.97200987161    
  -9.18291391359    -9.25832838199    -9.48348326185    -9.54857145249    -9.73156988406    
  -9.88882090265    -10.0419539141    -10.2825212478    -10.5003862051    -10.7577440895    
  -11.0507748643    -11.3458885795    -11.5889862695    -11.9307033499    -12.2238580415    
  -12.491216005    -12.8099112316    -13.1124312589    -13.3433177013    -13.5488332086    
  -13.7816142728    -13.9299311015    -14.0594051411    -14.1240419939    -14.1435486949    
  -14.1372960379    -14.0786295396    -13.9695761582    -13.8530489787    -13.7182641738    
  -13.4933591491    -13.3220686688    -13.1056946359    -12.8863103717    -12.6501958116    
  -12.4430530734    -12.1902130163    -12.0133942869    -11.7979523677    -11.6769173462    
  -11.4273706531    -11.3694230994    -11.2124653222    -11.1271793689    -10.9712789043    
  -10.8591786708    -10.9383981471    -10.9169713757    -10.8621905828    -10.8584095643    
  -10.849568612    -10.9808888066    -11.074352223    -11.0985757745    -11.2518253868    
  -11.3791254926    -11.5472933982    -11.678120918    -11.8948488113    -12.0310737675    
  -12.3037228751    -12.4817560284    -12.6947494971    -12.8855182581    -13.0903810253    
  -13.2475850949    -13.4101180028    -13.5445295046    -13.6608040632    -13.6855870189    
  -13.7148910111    -13.7110210306    -13.6318996782    -13.5441286141    -13.366752406    
  -13.1907856943    -12.9817624986    -12.7850195017    -12.4843310295    -12.1775559818    
  -11.925035313    -11.6554294351    -11.3143765924    -11.0884170438    -10.8088694088    
  -10.5039597426    -10.3035225341    -10.0685052095    -9.83482882094    -9.69168448044    
  -9.47008694567    -9.34836314213    -9.20879004858    -9.09370019612    -9.09924751507    
  -8.94125466401    -8.88618698262    -8.64281746622    -8.56108304226    -8.47105304861    
  -8.4741872384    -8.36073657617    -8.35164707457    -8.28199534828    -8.32377989051    
  -8.24674831854    -8.33696387779    -8.20098035125    -8.07468222427    -8.3112924294    
  -8.12518557506    -8.18969207534    -8.04660519786    -8.15543894347    -8.1034353388    
  -8.02484196311    -8.03337024376    -8.19019857407    -8.03165623018    -8.0164969429    
  -7.86050287757    -7.9867738596    -8.04623667635    -7.95321836591    -7.88723286434    
  -8.03157792791    -7.94076446822    -7.94870950314    -8.01569762626    -7.90728990562    
  -7.96258995144    -7.99310749582    -7.93056559304    -8.06496191233    -7.91570271702    
  -7.993545544    -7.97054275803    -7.98994754766    -8.00338234008    -8.00497890516    
  -8.03604205578    -8.00332899571    -8.05156666755    -8.04944330097    -8.09489255565    
  -8.12999778175    -8.09544535328    -8.12690151759    -8.0954996005    -8.07502179564    
  -8.0377502704    -7.9815800986    -7.95759994946    -7.99645110928    -7.97150088239    
  -7.95325517868    -7.94124071571    -7.93769651736    -7.96864593165    -7.95179056974    
  -7.94245604398    -7.98279141854    -7.97551568337    -7.96927450904    -8.01333496821    
  -7.97044125819    -7.99831663277    -8.02203584074    -8.00140421064    -8.04644789135    
  -8.00212351434    -7.99676001637    -8.01835471916    -8.02728575604    -8.08248506385    
  -8.09861619723    -8.11287771609    -8.08785670425    -8.26366851955    -7.87041210771    
  -8.44096711104    -7.97057111375    -8.22419444919    -8.14747013419    -8.37477925382    
  -8.17895467572    -8.29396403699    -8.2100330808    -8.40644104603    -8.25193936807    
  -8.54130175525    -8.37126720451    -8.47394275611    -8.47479882816    -8.6227806866    
  -8.57430120118    -8.69731509176    -8.70754170287    -8.89227625747    -8.97200987161    
  -9.18291391359    -9.25832838199    -9.48348326185    -9.54857145249    -9.73156988406    
  -9.88882090265    -10.0419539141    -10.2825212478    -10.5003862051    -10.7577440895    
  -11.0507748643    -11.3458885795    -11.5889862695    -11.9307033499    -12.2238580415    
  -12.491216005    -12.8099112316    -13.1124312589    -13.3433177013    -13.5488332086    
  -13.7816142728    -13.9299311015    -14.0594051411    -14.1240419939    -14.1435486949    
  -14.1372960379    -14.0786295396    -13.9695761582    -13.8530489787    -13.7182641738    
  -13.4933591491    -13.3220686688    -13.1056946359    -12.8863103717    -12.6501958116    
  -12.4430530734    -12.1902130163    -12.0133942869    -11.7979523677    -11.6769173462    
  -11.4273706531    -11.3694230994    -11.2124653222    -11.1271793689    -10.9712789043    
  -10.8591786708    -10.9383981471    -10.9169713757    -10.8621905828    -10.8584095643    
  -10.849568612    -10.9808888066    -11.074352223    -11.0985757745    -11.2518253868    
  -11.3791254926    -11.5472933982    -11.678120918    -11.8948488113    -12.0310737675    
  -12.3037228751    -12.4817560284    -12.6947494971    -12.8855182581    -13.0903810253    
  -13.2475850949    -13.4101180028    -13.5445295046    -13.6608040632    -13.6855870189    
  -13.7148910111    -13.7110210306    -13.6318996782    -13.5441286141    -13.366752406    
  -13.1907856943    -12.9817624986    -12.7850195017    -12.4843310295    -12.1775559818    
  -11.925035313    -11.6554294351    -11.3143765924    -11.0884170438    -10.8088694088    
  -10.5039597426    -10.3035225341    -10.0685052095    -9.83482882094    -9.69168448044    
  -9.47008694567    -9.34836314213    -9.20879004858    -9.09370019612    -9.09924751507    
  -8.94125466401    -8.88618698262    -8.64281746622    -8.56108304226    -8.47105304861    
  -8.4741872384    -8.36073657617    -8.35164707457    -8.28199534828    -8.32377989051    
  -8.24674831854    -8.33696387779    -8.20098035125    -8.07468222427    -8.3112924294    
  -8.12518557506    -8.18969207534    -8.04660519786    -8.15543894347    -8.1034353388    
  -8.02484196311    -8.03337024376    -8.19019857407    -8.03165623018    -8.0164969429    
  -7.86050287757    -7.9867738596    -8.04623667635    -7.95321836591    -7.88723286434    
  -8.03157792791    -7.94076446822    -7.94870950314    -8.01569762626    -7.90728990562    
  -7.96258995144    -7.99310749582    -7.93056559304    -8.06496191233    -7.91570271702    
  -7.993545544    -7.97054275803    -7.98994754766    -8.00338234008    -8.00497890516    
  -8.03604205578    -8.00332899571    -8.05156666755    -8.04944330097    -8.09489255565    
  -8.12999778175    -8.09544535328    -8.12690151759    -8.15127702892    -8.05559800541    
  -8.07910118603    -8.05169292881    -7.99157378324    -7.9285011247    -7.94241411946    
  -7.90709869043    -7.95967740744    -7.9122129153    -7.96883466171    -7.97281294304    
  -7.95318305755    -7.99800202013    -7.97654769915    -8.0074392889    -7.98438445624    
  -8.00491309219    -7.96725307981    -8.06379039981    -7.97861940065    -8.04727288396    
  -8.07344967407    -7.98181698414    -8.01454524537    -8.03636055835    -8.04749082876    
  -8.11465591745    -8.10726751028    -8.13653521085    -8.14000916523    -8.23875533115    
  -7.91796790807    -8.35806920408    -8.11078886557    -8.21546893932    -8.29435702254    
  -8.28091761016    -8.23062478876    -8.37478901375    -8.30460682186    -8.40954865798    
  -8.28350449238    -8.45681480207    -8.43392022843    -8.57927816005    -8.49339909158    
  -8.66150330168    -8.58586836667    -8.74951746273    -8.75095863251    -8.88966861969    
  -8.98969390966    -9.16216928093    -9.39512876481    -9.49739918718    -9.57254606199    
  -9.75547125796    -9.90709180968    -10.1040320629    -10.3256429434    -10.5509884799    
  -10.8459895831    -11.0538921989    -11.3899064658    -11.7031309972    -11.9604669746    
  -12.3081763754    -12.6150379302    -12.8688641819    -13.161721985    -13.4523016914    
  -13.6748146072    -13.868781016    -13.9965979982    -14.1377786611    -14.2206692689    
  -14.2646214991    -14.2506238001    -14.2124381272    -14.0850474261    -13.9843527304    
  -13.8305010295    -13.6141264557    -13.4321574291    -13.1927063946    -12.9829393269    
  -12.7550633947    -12.510942202    -12.3138883242    -12.1143732417    -11.8918629771    
  -11.7199944452    -11.532935281    -11.4162073832    -11.300414086    -11.1302389632    
  -11.08980704    -10.9987015939    -10.9550979856    -10.8506498668    -10.9006393431    
  -10.7040022646    -10.9302347524    -10.9739809543    -11.0000933116    -11.0604694951    
  -11.2170157728    -11.3495638528    -11.4621984413    -11.6141568089    -11.8191193326    
  -12.0024289245    -12.2017460187    -12.3713647417    -12.5931013988    -12.7885922158    
  -12.9861680149    -13.1652330441    -13.3171541577    -13.4236656776    -13.5466908909    
  -13.5859245876    -13.5918652916    -13.6072331878    -13.4934899096    -13.4392959764    
  -13.2897291584    -13.1156747277    -12.8901081994    -12.6117274421    -12.3872159518    
  -12.1385560797    -11.8021895354    -11.571357497    -11.2876437314    -10.964548885    
  -10.7445025686    -10.4747979977    -10.2201365793    -10.0295966007    -9.78482765998    
  -9.59577544506    -9.46885025092    -9.22345610449    -9.19414934748    -9.03968892567    
  -9.06408472076    -8.95427049854    -8.87940759678    -8.68066238365    -8.53584578206    
  -8.42539081188    -8.43499016136    -8.31554631999    -8.342250307    -8.24362237337    
  -8.37771518149    -8.13045158257    -8.27177014349    -8.14585144813    -8.18648137411    
  -8.13469776873    -8.19024215303    -8.03853988955    -8.12315911261    -7.98927684948    
  -8.23095410491    -7.90421091592    -8.0741328148    -7.99916226962    -8.09023169311    
  -8.03439662667    -7.92826410949    -7.91339098495    -7.97187622228    -8.01353923526    
  -7.92303698051    -8.06072293137    -7.92169134052    -7.93223410092    -8.01813487708    
  -7.92558744577    -8.04870379831    -7.95928847044    -7.96995754039    -7.96629068078    
  -8.02158340034    -8.00973857723    -8.01461814539    -8.00854525408    -8.02123526513    
  -8.00595870913    -8.01145322312    -8.05279431363    -8.0278848249    -8.08749416978    
  -8.09210012622    -8.10908048832    -8.10521103591    -8.15127702892    -8.05559800541    
  -8.07910118603    -8.05169292881    -7.99157378324    -7.9285011247    -7.94241411946    
  -7.90709869043    -7.95967740744    -7.9122129153    -7.96883466171    -7.97281294304    
  -7.95318305755    -7.99800202013    -7.97654769915    -8.0074392889    -7.98438445624    
  -8.00491309219    -7.96725307981    -8.06379039981    -7.97861940065    -8.04727288396    
  -8.07344967407    -7.98181698414    -8.01454524537    -8.03636055835    -8.04749082876    
  -8.11465591745    -8.10726751028    -8.13653521085    -8.14000916523    -8.23875533115    
  -7.91796790807    -8.35806920408    -8.11078886557    -8.21546893932    -8.29435702254    
  -8.28091761016    -8.23062478876    -8.37478901375    -8.30460682186    -8.40954865798    
  -8.28350449238    -8.45681480207    -8.43392022843    -8.57927816005    -8.49339909158    
  -8.66150330168    -8.58586836667    -8.74951746273    -8.75095863251    -8.88966861969    
  -8.98969390966    -9.16216928093    -9.39512876481    -9.49739918718    -9.57254606199    
  -9.75547125796    -9.90709180968    -10.1040320629    -10.3256429434    -10.5509884799    
  -10.8459895831    -11.0538921989    -11.3899064658    -11.7031309972    -11.9604669746    
  -12.3081763754    -12.6150379302    -12.8688641819    -13.161721985    -13.4523016914    
  -13.6748146072    -13.868781016    -13.9965979982    -14.1377786611    -14.2206692689    
  -14.2646214991    -14.2506238001    -14.2124381272    -14.0850474261    -13.9843527304    
  -13.8305010295    -13.6141264557    -13.4321574291    -13.1927063946    -12.9829393269    
  -12.7550633947    -12.510942202    -12.3138883242    -12.1143732417    -11.8918629771    
  -11.7199944452    -11.532935281    -11.4162073832    -11.300414086    -11.1302389632    
  -11.08980704    -10.9987015939    -10.9550979856    -10.8506498668    -10.9006393431    
  -10.7040022646    -10.9302347524    -10.9739809543    -11.0000933116    -11.0604694951    
  -11.2170157728    -11.3495638528    -11.4621984413    -11.6141568089    -11.8191193326    
  -12.0024289245    -12.2017460187    -12.3713647417    -12.5931013988    -12.7885922158    
  -12.9861680149    -13.1652330441    -13.3171541577    -13.4236656776    -13.5466908909    
  -13.5859245876    -13.5918652916    -13.6072331878    -13.4934899096    -13.4392959764    
  -13.2897291584    -13.1156747277    -12.8901081994    -12.6117274421    -12.3872159518    
  -12.1385560797    -11.8021895354    -11.571357497    -11.2876437314    -10.964548885    
  -10.7445025686    -10.4747979977    -10.2201365793    -10.0295966007    -9.78482765998    
  -9.59577544506    -9.46885025092    -9.22345610449    -9.19414934748    -9.03968892567    
  -9.06408472076    -8.95427049854    -8.87940759678    -8.68066238365    -8.53584578206    
  -8.42539081188    -8.43499016136    -8.31554631999    -8.342250307    -8.24362237337    
  -8.37771518149    -8.13045158257    -8.27177014349    -8.14585144813    -8.18648137411    
  -8.13469776873    -8.19024215303    -8.03853988955    -8.12315911261    -7.98927684948    
  -8.23095410491    -7.90421091592    -8.0741328148    -7.99916226962    -8.09023169311    
  -8.03439662667    -7.92826410949    -7.91339098495    -7.97187622228    -8.01353923526    
  -7.92303698051    -8.06072293137    -7.92169134052    -7.93223410092    -8.01813487708    
  -7.92558744577    -8.04870379831    -7.95928847044    -7.96995754039    -7.96629068078    