#     Embedding Potential
    
  CRYSTAL 
    
  PRIMVEC    
  11.9289999468    0.0    0.0    
  0.0    7.70400002591    0.0    
  -1.0119367296    0.0    5.72728907408    
  PRIMCOORD    
  3    1    
  O    7.11163030392    3.85200001727    1.35278570509    
  O    4.81736964288    3.85200001727    -1.35278570509    
  U    5.9644999734    3.85200001727    0.0    
  BEGIN_BLOCK_DATAGRID_2D    
  2d_datagrid_from_pbcpy    
  BEGIN_DATAGRID_2D    
  401    401    
  0.0    3.85200001839    0.0    
  23.8579998936    0.0    0.0    
  -2.02387346425    0.0    11.4545781468    
  -7.79741049418    -7.79756071421    -7.79797698786    -7.79867010598    -7.79960718084    
  -7.80076758238    -7.80212660128    -7.80366583867    -7.80537293796    -7.80724284228    
  -7.80927704523    -7.81148229653    -7.81386899278    -7.81644940169    -7.81923602348    
  -7.82223983085    -7.82546852336    -7.82892463558    -7.83260364894    -7.83649219942    
  -7.8405665585    -7.84479164075    -7.84912069145    -7.85349586158    -7.85784971648    
  -7.86210758509    -7.86619065422    -7.8700193611    -7.87351686736    -7.87661206799    
  -7.87924203065    -7.88135356876    -7.88290399262    -7.88386118919    -7.88420303153    
  -7.88391650353    -7.88299658927    -7.88144507042    -7.87926942707    -7.87648179183    
  -7.87309805002    -7.86913708512    -7.86462013173    -7.85957025706    -7.85401194499    
  -7.84797074984    -7.84147301649    -7.83454566115    -7.82721597903    -7.81951152284    
  -7.81145994784    -7.80308890958    -7.79442600591    -7.78549866596    -7.77633410153    
  -7.76695925759    -7.75740073083    -7.74768476301    -7.73783715878    -7.72788328401    
  -7.71784800529    -7.70775565834    -7.6976300543    -7.68749439832    -7.67737131265    
  -7.66728279816    -7.65725020444    -7.64729425061    -7.6374349554    -7.62769168768    
  -7.61808310712    -7.60862719213    -7.59934121594    -7.59024174729    -7.58134465597    
  -7.57266512619    -7.56421760663    -7.55601589634    -7.54807307646    -7.54040156756    
  -7.53301311343    -7.52591879886    -7.51912906135    -7.51265369445    -7.50650188106    
  -7.50068217751    -7.49520253508    -7.4900703427    -7.48529238806    -7.48087490346    
  -7.47682358365    -7.47314356941    -7.46983948186    -7.4669154221    -7.46437498715    
  -7.46222126999    -7.46045687604    -7.45908392451    -7.45810405868    -7.45751844307    
  -7.45732776831    -7.45753226534    -7.45813168206    -7.45912531459    -7.4605119675    
  -7.46228998031    -7.46445721696    -7.46701105421    -7.46994837255    -7.47326556179    
  -7.47695849596    -7.48102254581    -7.48545253991    -7.49024277626    -7.49538700516    
  -7.50087841314    -7.50670960468    -7.51287261517    -7.51935886105    -7.52615915513    
  -7.53326369424    -7.54066202093    -7.54834304359    -7.5562950068    -7.5645054809    
  -7.57296137414    -7.58164889164    -7.59055355238    -7.59966019118    -7.60895292468    
  -7.61841518242    -7.62802968356    -7.63777845947    -7.64764283247    -7.65760345777    
  -7.6676402888    -7.67773264117    -7.68785913934    -7.69799780944    -7.70812602732    
  -7.71822058511    -7.72825769142    -7.73821301484    -7.74806168902    -7.75777837368    
  -7.76733725656    -7.77671212338    -7.78587637375    -7.79480308359    -7.80346505303    
  -7.81183485778    -7.81988491976    -7.82758759503    -7.83491523171    -7.84184030338    
  -7.84833552158    -7.8543739836    -7.85992935441    -7.86497608864    -7.86948971997    
  -7.87344718836    -7.87682725861    -7.87961106754    -7.88178272328    -7.88333009397    
  -7.88424570528    -7.8845277523    -7.88418125166    -7.88321920014    -7.88166368941    
  -7.87954682838    -7.87691125103    -7.87381012332    -7.87030634078    -7.86647098101    
  -7.86238085111    -7.85811550433    -7.85375373886    -7.84937023119    -7.84503242078    
  -7.84079818909    -7.83671429276    -7.83281586434    -7.82912664394    -7.82566004332    
  -7.82242059721    -7.81940580555    -7.81660799218    -7.81401620757    -7.81161798075    
  -7.80940104936    -7.80735503691    -7.80547319813    -7.80375401108    -7.80220263895    
  -7.80083104452    -7.79965892817    -7.79870675377    -7.79800805734    -7.79756032807    
  -7.79741049418    -7.79756071421    -7.79797698786    -7.79867010598    -7.79960718084    
  -7.80076758238    -7.80212660128    -7.80366583867    -7.80537293796    -7.80724284228    
  -7.80927704523    -7.81148229653    -7.81386899278    -7.81644940169    -7.81923602348    
  -7.82223983085    -7.82546852336    -7.82892463558    -7.83260364894    -7.83649219942    
  -7.8405665585    -7.84479164075    -7.84912069145    -7.85349586158    -7.85784971648    
  -7.86210758509    -7.86619065422    -7.8700193611    -7.87351686736    -7.87661206799    
  -7.87924203065    -7.88135356876    -7.88290399262    -7.88386118919    -7.88420303153    
  -7.88391650353    -7.88299658927    -7.88144507042    -7.87926942707    -7.87648179183    
  -7.87309805002    -7.86913708512    -7.86462013173    -7.85957025706    -7.85401194499    
  -7.84797074984    -7.84147301649    -7.83454566115    -7.82721597903    -7.81951152284    
  -7.81145994784    -7.80308890958    -7.79442600591    -7.78549866596    -7.77633410153    
  -7.76695925759    -7.75740073083    -7.74768476301    -7.73783715878    -7.72788328401    
  -7.71784800529    -7.70775565834    -7.6976300543    -7.68749439832    -7.67737131265    
  -7.66728279816    -7.65725020444    -7.64729425061    -7.6374349554    -7.62769168768    
  -7.61808310712    -7.60862719213    -7.59934121594    -7.59024174729    -7.58134465597    
  -7.57266512619    -7.56421760663    -7.55601589634    -7.54807307646    -7.54040156756    
  -7.53301311343    -7.52591879886    -7.51912906135    -7.51265369445    -7.50650188106    
  -7.50068217751    -7.49520253508    -7.4900703427    -7.48529238806    -7.48087490346    
  -7.47682358365    -7.47314356941    -7.46983948186    -7.4669154221    -7.46437498715    
  -7.46222126999    -7.46045687604    -7.45908392451    -7.45810405868    -7.45751844307    
  -7.45732776831    -7.45753226534    -7.45813168206    -7.45912531459    -7.4605119675    
  -7.46228998031    -7.46445721696    -7.46701105421    -7.46994837255    -7.47326556179    
  -7.47695849596    -7.48102254581    -7.48545253991    -7.49024277626    -7.49538700516    
  -7.50087841314    -7.50670960468    -7.51287261517    -7.51935886105    -7.52615915513    
  -7.53326369424    -7.54066202093    -7.54834304359    -7.5562950068    -7.5645054809    
  -7.57296137414    -7.58164889164    -7.59055355238    -7.59966019118    -7.60895292468    
  -7.61841518242    -7.62802968356    -7.63777845947    -7.64764283247    -7.65760345777    
  -7.6676402888    -7.67773264117    -7.68785913934    -7.69799780944    -7.70812602732    
  -7.71822058511    -7.72825769142    -7.73821301484    -7.74806168902    -7.75777837368    
  -7.76733725656    -7.77671212338    -7.78587637375    -7.79480308359    -7.80346505303    
  -7.81183485778    -7.81988491976    -7.82758759503    -7.83491523171    -7.84184030338    
  -7.84833552158    -7.8543739836    -7.85992935441    -7.86497608864    -7.86948971997    
  -7.87344718836    -7.87682725861    -7.87961106754    -7.88178272328    -7.88333009397    
  -7.88424570528    -7.8845277523    -7.88418125166    -7.88321920014    -7.88166368941    
  -7.87954682838    -7.87691125103    -7.87381012332    -7.87030634078    -7.86647098101    
  -7.86238085111    -7.85811550433    -7.85375373886    -7.84937023119    -7.84503242078    
  -7.84079818909    -7.83671429276    -7.83281586434    -7.82912664394    -7.82566004332    
  -7.82242059721    -7.81940580555    -7.81660799218    -7.81401620757    -7.81161798075    
  -7.80940104936    -7.80735503691    -7.80547319813    -7.80375401108    -7.80220263895    
  -7.80083104452    -7.79965892817    -7.79870675377    -7.79800805734    -7.79756032807    
  -7.79741049418    -7.79742224599    -7.79725851286    -7.79737446491    -7.79777237882    
  -7.79841585459    -7.79928616958    -7.80035816498    -7.80161344308    -7.80303937514    
  -7.8046307261    -7.80638890302    -7.80832075392    -7.81043689122    -7.81274997856    
  -7.81527299806    -7.81801751327    -7.82099188293    -7.82419936772    -7.82763623359    
  -7.83128990409    -7.83513745257    -7.83914454167    -7.84326507532    -7.84744173063    
  -7.85160738951    -7.85568748612    -7.85960305785    -7.86327416089    -7.86662336585    
  -7.86957884011    -7.87207682884    -7.87406330812    -7.87549481099    -7.87633851584    
  -7.8765717156    -7.8761809508    -7.87516086754    -7.87351305422    -7.87124487967    
  -7.86836847973    -7.86489979904    -7.86085784419    -7.85626402237    -7.85114160271    
  -7.84551531083    -7.83941095246    -7.83285514087    -7.8258750763    -7.81849834007    
  -7.81075277538    -7.80266632203    -7.79426693471    -7.7855824879    -7.77664069301    
  -7.7674690385    -7.75809471962    -7.7485446014    -7.7388451498    -7.72902241038    
  -7.71910194912    -7.70910883345    -7.69906758121    -7.68900215492    -7.67893591432    
  -7.6688915935    -7.65889129839    -7.64895646108    -7.63910784588    -7.62936552245    
  -7.61974886242    -7.61027651784    -7.60096642684    -7.59183581156    -7.58290115532    
  -7.57417822537    -7.56568207086    -7.55742699789    -7.54942662807    -7.54169385397    
  -7.53424086787    -7.52707918748    -7.52021963506    -7.5136723721    -7.50744690367    
  -7.50155209263    -7.49599616781    -7.49078674893    -7.48593084148    -7.4814348835    
  -7.47730471157    -7.47354562492    -7.4701623516    -7.46715910298    -7.46453954586    
  -7.46230684654    -7.46046365372    -7.4590121315    -7.4579539402    -7.45729027106    
  -7.45702182729    -7.45714884153    -7.45767108369    -7.45858783805    -7.45989794027    
  -7.46159973612    -7.46369111584    -7.4661694854    -7.46903177519    -7.472274428    
  -7.47589340094    -7.47988414122    -7.48424159943    -7.48896020122    -7.49403384804    
  -7.49945590374    -7.50521918525    -7.51131593932    -7.51773785585    -7.52447602675    
  -7.53152095506    -7.53886253668    -7.54649004736    -7.55439213296    -7.56255680124    
  -7.57097141093    -7.57962267004    -7.58849661085    -7.59757860477    -7.60685335008    
  -7.61630486047    -7.62591648287    -7.6356708725    -7.64555002426    -7.65553524873    
  -7.66560720704    -7.6757458839    -7.68593064716    -7.69614019764    -7.70635265944    
  -7.71654551953    -7.72669571095    -7.73677959696    -7.74677301443    -7.75665129313    
  -7.76638929444    -7.77596142806    -7.78534171262    -7.79450379426    -7.8034210019    
  -7.81206640776    -7.82041285083    -7.82843304275    -7.83609961521    -7.84338520303    
  -7.85026256946    -7.85670470055    -7.86268497649    -7.86817732581    -7.87315646176    
  -7.87759814449    -7.88147952623    -7.88477954892    -7.8874794631    -7.88956346295    
  -7.89101940801    -7.89183973885    -7.89202245751    -7.89157227713    -7.89050175401    
  -7.88883242097    -7.88659569702    -7.88383344809    -7.88059800751    -7.87695145967    
  -7.87296412335    -7.86871220555    -7.86427483569    -7.85973063466    -7.85515431959    
  -7.8506136189    -7.84616686829    -7.84186144459    -7.83773317786    -7.83380657879    
  -7.83009581795    -7.82660619485    -7.82333591336    -7.82027796686    -7.81742199178    
  -7.81475602046    -7.81226818434    -7.8099483698    -7.80778993086    -7.80579130246    
  -7.80395743598    -7.80230022367    -7.80083869824    -7.79959506167    -7.79859809779    
  -7.79786001994    -7.79742224599    -7.79725851286    -7.79737446491    -7.79777237882    
  -7.79841585459    -7.79928616958    -7.80035816498    -7.80161344308    -7.80303937514    
  -7.8046307261    -7.80638890302    -7.80832075392    -7.81043689122    -7.81274997856    
  -7.81527299806    -7.81801751327    -7.82099188293    -7.82419936772    -7.82763623359    
  -7.83128990409    -7.83513745257    -7.83914454167    -7.84326507532    -7.84744173063    
  -7.85160738951    -7.85568748612    -7.85960305785    -7.86327416089    -7.86662336585    
  -7.86957884011    -7.87207682884    -7.87406330812    -7.87549481099    -7.87633851584    
  -7.8765717156    -7.8761809508    -7.87516086754    -7.87351305422    -7.87124487967    
  -7.86836847973    -7.86489979904    -7.86085784419    -7.85626402237    -7.85114160271    
  -7.84551531083    -7.83941095246    -7.83285514087    -7.8258750763    -7.81849834007    
  -7.81075277538    -7.80266632203    -7.79426693471    -7.7855824879    -7.77664069301    
  -7.7674690385    -7.75809471962    -7.7485446014    -7.7388451498    -7.72902241038    
  -7.71910194912    -7.70910883345    -7.69906758121    -7.68900215492    -7.67893591432    
  -7.6688915935    -7.65889129839    -7.64895646108    -7.63910784588    -7.62936552245    
  -7.61974886242    -7.61027651784    -7.60096642684    -7.59183581156    -7.58290115532    
  -7.57417822537    -7.56568207086    -7.55742699789    -7.54942662807    -7.54169385397    
  -7.53424086787    -7.52707918748    -7.52021963506    -7.5136723721    -7.50744690367    
  -7.50155209263    -7.49599616781    -7.49078674893    -7.48593084148    -7.4814348835    
  -7.47730471157    -7.47354562492    -7.4701623516    -7.46715910298    -7.46453954586    
  -7.46230684654    -7.46046365372    -7.4590121315    -7.4579539402    -7.45729027106    
  -7.45702182729    -7.45714884153    -7.45767108369    -7.45858783805    -7.45989794027    
  -7.46159973612    -7.46369111584    -7.4661694854    -7.46903177519    -7.472274428    
  -7.47589340094    -7.47988414122    -7.48424159943    -7.48896020122    -7.49403384804    
  -7.49945590374    -7.50521918525    -7.51131593932    -7.51773785585    -7.52447602675    
  -7.53152095506    -7.53886253668    -7.54649004736    -7.55439213296    -7.56255680124    
  -7.57097141093    -7.57962267004    -7.58849661085    -7.59757860477    -7.60685335008    
  -7.61630486047    -7.62591648287    -7.6356708725    -7.64555002426    -7.65553524873    
  -7.66560720704    -7.6757458839    -7.68593064716    -7.69614019764    -7.70635265944    
  -7.71654551953    -7.72669571095    -7.73677959696    -7.74677301443    -7.75665129313    
  -7.76638929444    -7.77596142806    -7.78534171262    -7.79450379426    -7.8034210019    
  -7.81206640776    -7.82041285083    -7.82843304275    -7.83609961521    -7.84338520303    
  -7.85026256946    -7.85670470055    -7.86268497649    -7.86817732581    -7.87315646176    
  -7.87759814449    -7.88147952623    -7.88477954892    -7.8874794631    -7.88956346295    
  -7.89101940801    -7.89183973885    -7.89202245751    -7.89157227713    -7.89050175401    
  -7.88883242097    -7.88659569702    -7.88383344809    -7.88059800751    -7.87695145967    
  -7.87296412335    -7.86871220555    -7.86427483569    -7.85973063466    -7.85515431959    
  -7.8506136189    -7.84616686829    -7.84186144459    -7.83773317786    -7.83380657879    
  -7.83009581795    -7.82660619485    -7.82333591336    -7.82027796686    -7.81742199178    
  -7.81475602046    -7.81226818434    -7.8099483698    -7.80778993086    -7.80579130246    
  -7.80395743598    -7.80230022367    -7.80083869824    -7.79959506167    -7.79859809779    
  -7.79786001994    -7.79742224599    -7.79739350917    -7.79696563377    -7.79680380309    
  -7.79692809066    -7.79729891452    -7.79789932887    -7.79870378384    -7.79969386845    
  -7.80085668588    -7.80218679047    -7.80368546466    -7.80535958913    -7.80721993772    
  -7.80927949704    -7.81155167639    -7.81404857251    -7.81677916728    -7.81974741804    
  -7.82295036208    -7.82637621952    -7.83000288758    -7.83379681387    -7.83771262316    
  -7.84169358913    -7.84567299666    -7.84957648408    -7.85332503562    -7.85683843267    
  -7.86003874148    -7.86285348696    -7.86521815396    -7.8670779339    -7.86838861395    
  -7.86911668082    -7.86923885306    -7.86874122233    -7.86761808583    -7.86587082374    
  -7.86350668152    -7.86053776993    -7.85698007907    -7.85285271788    -7.84817724529    
  -7.84297712111    -7.83727729021    -7.83110379484    -7.82448350434    -7.81744388605    
  -7.81001279979    -7.80221836185    -7.79408878644    -7.78565232177    -7.77693710502    
  -7.76797112356    -7.75878213491    -7.74939758037    -7.73984458376    -7.73014983453    
  -7.7203396131    -7.71043968349    -7.7004753112    -7.69047119886    -7.68045145564    
  -7.67043960009    -7.66045847968    -7.65053030603    -7.64067660314    -7.63091818119    
  -7.6212751681    -7.61176694257    -7.6024121605    -7.59322873035    -7.58423382666    
  -7.57544386617    -7.56687452023    -7.55854071638    -7.55045663737    -7.54263573742    
  -7.53509073499    -7.5278336206    -7.52087569509    -7.51422754135    -7.50789906653    
  -7.50189950541    -7.49623742518    -7.49092074959    -7.48595679246    -7.48135220401    
  -7.47711309071    -7.47324493224    -7.46975264829    -7.46664059483    -7.46391259411    
  -7.46157191597    -7.45962132535    -7.45806305981    -7.4568988724    -7.45613000379    
  -7.45575722345    -7.45578080939    -7.45620057469    -7.45701585782    -7.45822552531    
  -7.45982797622    -7.46182114827    -7.46420250867    -7.46696904776    -7.47011728494    
  -7.47364326212    -7.47754253864    -7.48181017346    -7.48644073091    -7.49142826832    
  -7.49676632547    -7.50244791058    -7.50846550476    -7.51481102859    -7.52147585345    
  -7.52845077534    -7.53572601529    -7.54329119159    -7.55113533504    -7.5592468527    
  -7.56761353196    -7.57622253834    -7.58506038876    -7.59411296093    -7.60336548581    
  -7.61280253101    -7.62240801261    -7.63216519412    -7.64205667122    -7.65206439276    
  -7.66216965586    -7.67235311539    -7.68259478032    -7.69287405001    -7.70316969499    
  -7.71345990628    -7.72372227265    -7.73393383683    -7.7440710962    -7.75411002848    
  -7.76402613006    -7.77379443128    -7.78338953737    -7.79278566244    -7.80195666848    
  -7.81087610224    -7.81951726942    -7.82785324446    -7.83585698809    -7.84350137167    
  -7.85075928604    -7.85760374912    -7.86400799073    -7.86994564149    -7.8753908678    
  -7.88031861596    -7.88470485554    -7.88852693021    -7.89176395402    -7.89439729459    
  -7.89641123081    -7.89779364216    -7.89853690802    -7.89863888865    -7.89810404798    
  -7.89694457667    -7.89518152871    -7.89284572123    -7.88997834163    -7.88663096797    
  -7.8828649315    -7.87874982608    -7.87436126082    -7.86977789697    -7.86507811005    
  -7.86033654841    -7.85562110226    -7.85099040617    -7.84649231555    -7.84216320182    
  -7.83802820924    -7.83410214176    -7.83039096019    -7.82689348733    -7.82360333307    
  -7.82051067418    -7.81760403571    -7.81487194596    -7.81230457861    -7.80989542774    
  -7.80764294484    -7.80555191213    -7.80363418943    -7.80190819404    -7.80039771574    
  -7.79912711184    -7.79812218594    -7.79739350917    -7.79696563377    -7.79680380309    
  -7.79692809066    -7.79729891452    -7.79789932887    -7.79870378384    -7.79969386845    
  -7.80085668588    -7.80218679047    -7.80368546466    -7.80535958913    -7.80721993772    
  -7.80927949704    -7.81155167639    -7.81404857251    -7.81677916728    -7.81974741804    
  -7.82295036208    -7.82637621952    -7.83000288758    -7.83379681387    -7.83771262316    
  -7.84169358913    -7.84567299666    -7.84957648408    -7.85332503562    -7.85683843267    
  -7.86003874148    -7.86285348696    -7.86521815396    -7.8670779339    -7.86838861395    
  -7.86911668082    -7.86923885306    -7.86874122233    -7.86761808583    -7.86587082374    
  -7.86350668152    -7.86053776993    -7.85698007907    -7.85285271788    -7.84817724529    
  -7.84297712111    -7.83727729021    -7.83110379484    -7.82448350434    -7.81744388605    
  -7.81001279979    -7.80221836185    -7.79408878644    -7.78565232177    -7.77693710502    
  -7.76797112356    -7.75878213491    -7.74939758037    -7.73984458376    -7.73014983453    
  -7.7203396131    -7.71043968349    -7.7004753112    -7.69047119886    -7.68045145564    
  -7.67043960009    -7.66045847968    -7.65053030603    -7.64067660314    -7.63091818119    
  -7.6212751681    -7.61176694257    -7.6024121605    -7.59322873035    -7.58423382666    
  -7.57544386617    -7.56687452023    -7.55854071638    -7.55045663737    -7.54263573742    
  -7.53509073499    -7.5278336206    -7.52087569509    -7.51422754135    -7.50789906653    
  -7.50189950541    -7.49623742518    -7.49092074959    -7.48595679246    -7.48135220401    
  -7.47711309071    -7.47324493224    -7.46975264829    -7.46664059483    -7.46391259411    
  -7.46157191597    -7.45962132535    -7.45806305981    -7.4568988724    -7.45613000379    
  -7.45575722345    -7.45578080939    -7.45620057469    -7.45701585782    -7.45822552531    
  -7.45982797622    -7.46182114827    -7.46420250867    -7.46696904776    -7.47011728494    
  -7.47364326212    -7.47754253864    -7.48181017346    -7.48644073091    -7.49142826832    
  -7.49676632547    -7.50244791058    -7.50846550476    -7.51481102859    -7.52147585345    
  -7.52845077534    -7.53572601529    -7.54329119159    -7.55113533504    -7.5592468527    
  -7.56761353196    -7.57622253834    -7.58506038876    -7.59411296093    -7.60336548581    
  -7.61280253101    -7.62240801261    -7.63216519412    -7.64205667122    -7.65206439276    
  -7.66216965586    -7.67235311539    -7.68259478032    -7.69287405001    -7.70316969499    
  -7.71345990628    -7.72372227265    -7.73393383683    -7.7440710962    -7.75411002848    
  -7.76402613006    -7.77379443128    -7.78338953737    -7.79278566244    -7.80195666848    
  -7.81087610224    -7.81951726942    -7.82785324446    -7.83585698809    -7.84350137167    
  -7.85075928604    -7.85760374912    -7.86400799073    -7.86994564149    -7.8753908678    
  -7.88031861596    -7.88470485554    -7.88852693021    -7.89176395402    -7.89439729459    
  -7.89641123081    -7.89779364216    -7.89853690802    -7.89863888865    -7.89810404798    
  -7.89694457667    -7.89518152871    -7.89284572123    -7.88997834163    -7.88663096797    
  -7.8828649315    -7.87874982608    -7.87436126082    -7.86977789697    -7.86507811005    
  -7.86033654841    -7.85562110226    -7.85099040617    -7.84649231555    -7.84216320182    
  -7.83802820924    -7.83410214176    -7.83039096019    -7.82689348733    -7.82360333307    
  -7.82051067418    -7.81760403571    -7.81487194596    -7.81230457861    -7.80989542774    
  -7.80764294484    -7.80555191213    -7.80363418943    -7.80190819404    -7.80039771574    
  -7.79912711184    -7.79812218594    -7.79739350917    -7.79735630924    -7.79665194345    
  -7.79619910509    -7.7960364894    -7.79612122329    -7.79643822543    -7.79696155386    
  -7.79767279223    -7.79855876117    -7.79961378018    -7.80083899821    -7.80224128661    
  -7.80383160564    -7.80562323543    -7.80763003398    -7.80986464362    -7.81233669776    
  -7.81505088734    -7.81800504529    -7.82118826235    -7.82457930313    -7.82814547303    
  -7.83184217939    -7.8356133466    -7.83939272946    -7.8431062166    -7.84667476909    
  -7.85001791425    -7.85305721547    -7.85571953274    -7.85793956984    -7.85966170758    
  -7.86084092889    -7.86144300812    -7.86144404457    -7.86082963956    -7.85959372903    
  -7.85773745667    -7.85526794269    -7.85219724966    -7.84854141719    -7.84431966242    
  -7.8395536977    -7.83426719103    -7.82848530899    -7.82223434913    -7.81554145449    
  -7.80843437312    -7.80094125983    -7.79309052582    -7.78491068381    -7.7764302875    
  -7.76767775804    -7.75868138286    -7.74946919506    -7.7400689244    -7.73050794497    
  -7.72081321301    -7.71101123895    -7.70112802019    -7.69118903004    -7.68121916583    
  -7.67124270918    -7.66128333533    -7.65136402969    -7.64150711413    -7.63173420713    
  -7.62206619685    -7.61252324568    -7.60312476129    -7.59388940276    -7.58483505624    
  -7.57597883971    -7.56733711075    -7.55892543195    -7.55075862264    -7.5428507226    
  -7.53521501588    -7.52786403159    -7.52080956587    -7.51406267603    -7.50763370108    
  -7.50153228375    -7.49576736171    -7.49034720705    -7.48527941786    -7.4805709671    
  -7.47622817033    -7.47225674666    -7.46866181704    -7.46544790072    -7.46261896221    
  -7.46017840972    -7.45812910152    -7.45647337619    -7.4552130434    -7.4543494144    
  -7.45388329821    -7.45381501602    -7.45414440671    -7.45487082986    -7.45599317988    
  -7.45750988299    -7.45941888173    -7.46171768762    -7.46440331247    -7.4674723229    
  -7.47092080719    -7.4747443849    -7.4789381955    -7.48349689323    -7.48841464396    
  -7.49368511454    -7.49930146326    -7.50525633447    -7.5115418542    -7.51814959624    
  -7.52507061027    -7.53229537185    -7.53981380949    -7.5476152602    -7.55568848354    
  -7.564021647    -7.57260231061    -7.5814174208    -7.59045331038    -7.59969568648    
  -7.60912962823    -7.61873957496    -7.62850933585    -7.63842207941    -7.6484603456    
  -7.65860602807    -7.66884040593    -7.67914412683    -7.68949722255    -7.6998791213    
  -7.71026866494    -7.72064410306    -7.73098313987    -7.74126291663    -7.75146007389    
  -7.76155073177    -7.77151055329    -7.78131474293    -7.79093810476    -7.80035505192    
  -7.80953967091    -7.81846573063    -7.82710676656    -7.83543611368    -7.84342696769    
  -7.85105246345    -7.85828574823    -7.86510010021    -7.87146900935    -7.87736635903    
  -7.88276656836    -7.88764481681    -7.89197730585    -7.89574157696    -7.89891691718    
  -7.90148484594    -7.90342971704    -7.90473944966    -7.90540637473    -7.90542822133    
  -7.90480920445    -7.90356116387    -7.90170466674    -7.89926993262    -7.89629744864    
  -7.89283802417    -7.88895219773    -7.88470881427    -7.88018282683    -7.87545239142    
  -7.87059556242    -7.86568689119    -7.8607943524    -7.85597685457    -7.85128267965    
  -7.84674872313    -7.84240072261    -7.83825412165    -7.83431552125    -7.83058439129    
  -7.82705495636    -7.82371796829    -7.82056247357    -7.8175774348    -7.81475334021    
  -7.81208386428    -7.80956750134    -7.8072088796    -7.8050198386    -7.80301817165    
  -7.80122932432    -7.79967300922    -7.79838925779    -7.79735630924    -7.79665194345    
  -7.79619910509    -7.7960364894    -7.79612122329    -7.79643822543    -7.79696155386    
  -7.79767279223    -7.79855876117    -7.79961378018    -7.80083899821    -7.80224128661    
  -7.80383160564    -7.80562323543    -7.80763003398    -7.80986464362    -7.81233669776    
  -7.81505088734    -7.81800504529    -7.82118826235    -7.82457930313    -7.82814547303    
  -7.83184217939    -7.8356133466    -7.83939272946    -7.8431062166    -7.84667476909    
  -7.85001791425    -7.85305721547    -7.85571953274    -7.85793956984    -7.85966170758    
  -7.86084092889    -7.86144300812    -7.86144404457    -7.86082963956    -7.85959372903    
  -7.85773745667    -7.85526794269    -7.85219724966    -7.84854141719    -7.84431966242    
  -7.8395536977    -7.83426719103    -7.82848530899    -7.82223434913    -7.81554145449    
  -7.80843437312    -7.80094125983    -7.79309052582    -7.78491068381    -7.7764302875    
  -7.76767775804    -7.75868138286    -7.74946919506    -7.7400689244    -7.73050794497    
  -7.72081321301    -7.71101123895    -7.70112802019    -7.69118903004    -7.68121916583    
  -7.67124270918    -7.66128333533    -7.65136402969    -7.64150711413    -7.63173420713    
  -7.62206619685    -7.61252324568    -7.60312476129    -7.59388940276    -7.58483505624    
  -7.57597883971    -7.56733711075    -7.55892543195    -7.55075862264    -7.5428507226    
  -7.53521501588    -7.52786403159    -7.52080956587    -7.51406267603    -7.50763370108    
  -7.50153228375    -7.49576736171    -7.49034720705    -7.48527941786    -7.4805709671    
  -7.47622817033    -7.47225674666    -7.46866181704    -7.46544790072    -7.46261896221    
  -7.46017840972    -7.45812910152    -7.45647337619    -7.4552130434    -7.4543494144    
  -7.45388329821    -7.45381501602    -7.45414440671    -7.45487082986    -7.45599317988    
  -7.45750988299    -7.45941888173    -7.46171768762    -7.46440331247    -7.4674723229    
  -7.47092080719    -7.4747443849    -7.4789381955    -7.48349689323    -7.48841464396    
  -7.49368511454    -7.49930146326    -7.50525633447    -7.5115418542    -7.51814959624    
  -7.52507061027    -7.53229537185    -7.53981380949    -7.5476152602    -7.55568848354    
  -7.564021647    -7.57260231061    -7.5814174208    -7.59045331038    -7.59969568648    
  -7.60912962823    -7.61873957496    -7.62850933585    -7.63842207941    -7.6484603456    
  -7.65860602807    -7.66884040593    -7.67914412683    -7.68949722255    -7.6998791213    
  -7.71026866494    -7.72064410306    -7.73098313987    -7.74126291663    -7.75146007389    
  -7.76155073177    -7.77151055329    -7.78131474293    -7.79093810476    -7.80035505192    
  -7.80953967091    -7.81846573063    -7.82710676656    -7.83543611368    -7.84342696769    
  -7.85105246345    -7.85828574823    -7.86510010021    -7.87146900935    -7.87736635903    
  -7.88276656836    -7.88764481681    -7.89197730585    -7.89574157696    -7.89891691718    
  -7.90148484594    -7.90342971704    -7.90473944966    -7.90540637473    -7.90542822133    
  -7.90480920445    -7.90356116387    -7.90170466674    -7.89926993262    -7.89629744864    
  -7.89283802417    -7.88895219773    -7.88470881427    -7.88018282683    -7.87545239142    
  -7.87059556242    -7.86568689119    -7.8607943524    -7.85597685457    -7.85128267965    