#     Embedding Potential
    
  CRYSTAL 
    
  PRIMVEC    
  5.9644999734    0.0    0.0    
  0.0    7.70400002591    0.0    
  -1.0119367296    0.0    5.72728907408    
  PRIMCOORD    
  3    1    
  O    3.62341195149    3.79493335159    4.21643024991    
  O    1.32915129044    3.79493335159    1.51085882781    
  U    2.47628162096    3.79493335159    2.86364453289    
  BEGIN_BLOCK_DATAGRID_2D    
  2d_datagrid_from_pbcpy    
  BEGIN_DATAGRID_2D    
  401    401    
  0.0    3.85200001839    0.0    
  23.8579998936    0.0    0.0    
  -2.02387346425    0.0    11.4545781468    
  -6.5799094729    -7.18601445693    -7.84888864226    -8.13159227809    -7.79401040219    
  -7.05540521293    -6.83937620535    -7.23423789925    -7.34034680399    -7.13993607878    
  -7.25735577989    -7.4751535791    -7.27607159314    -7.00745098599    -7.11029249875    
  -7.28074106185    -7.23261554489    -7.10788828156    -7.04666524509    -7.0879242542    
  -7.16532233862    -7.1270390949    -7.03352266158    -7.06386208641    -7.1153053804    
  -7.01401704814    -6.90971395164    -6.95727678987    -7.00444084676    -6.94830897313    
  -6.91631104933    -6.95591700079    -6.96554323745    -6.92536360771    -6.8989052044    
  -6.88916356242    -6.86392478647    -6.83345755233    -6.82056640105    -6.82119293399    
  -6.81960181706    -6.78837119789    -6.72711238178    -6.68942843907    -6.68897940113    
  -6.68317739964    -6.67007032588    -6.68086010451    -6.69409755954    -6.66909629562    
  -6.6416621038    -6.65345372878    -6.65069341948    -6.59557985061    -6.5527684076    
  -6.55596533915    -6.55890113364    -6.5417725056    -6.52379693164    -6.51441142642    
  -6.51281581395    -6.51059622879    -6.49825245028    -6.48192282306    -6.46787932579    
  -6.44344289468    -6.4103009654    -6.41259333923    -6.44866180502    -6.43981237489    
  -6.38779001574    -6.37787528156    -6.39093248839    -6.34656344294    -6.29107772258    
  -6.30648755111    -6.3476563332    -6.35228288021    -6.33054719301    -6.30784641791    
  -6.3102716489    -6.32642850727    -6.29641087727    -6.24943936903    -6.28842913429    
  -6.34534724381    -6.27593182968    -6.19018444663    -6.24512579078    -6.31619414052    
  -6.27139834989    -6.18393849734    -6.1541085046    -6.25959581585    -6.41059990711    
  -6.3281584327    -6.10805413765    -6.13502063409    -6.32563626615    -6.36420979581    
  -6.23041642007    -6.05050660627    -6.07426063994    -6.37628493578    -6.50297076279    
  -6.2710989868    -6.09574498041    -6.1481801397    -6.25446980258    -6.30843745845    
  -6.28222060112    -6.23765488901    -6.25693648077    -6.27697267113    -6.2308264865    
  -6.21877364178    -6.29635181865    -6.32980520159    -6.27613288218    -6.26978658353    
  -6.32840858055    -6.33971364741    -6.30701686427    -6.3086047811    -6.32921078224    
  -6.32263469782    -6.31521750608    -6.33995346148    -6.378388935    -6.4075486448    
  -6.41690498859    -6.41283317475    -6.42172669656    -6.43820813383    -6.42995841258    
  -6.42004957068    -6.45598373499    -6.50041887785    -6.49950935137    -6.48969851817    
  -6.50897363171    -6.52729521859    -6.52587242796    -6.52973175395    -6.54753292033    
  -6.56183518902    -6.57227526525    -6.59344777483    -6.62685456614    -6.66378202467    
  -6.68127301887    -6.66455922346    -6.65344546016    -6.67344508905    -6.67838784045    
  -6.65519360058    -6.66522441504    -6.71889901205    -6.76179324621    -6.77758404214    
  -6.78315048961    -6.79931555273    -6.83940448859    -6.86575697001    -6.84924591509    
  -6.85454106051    -6.91365722386    -6.93526133014    -6.90212907652    -6.93332552176    
  -7.00839716522    -6.96563837939    -6.87618671731    -6.94301716892    -7.06069684898    
  -7.0371573453    -6.99024570061    -7.05903241323    -7.1401663835    -7.13759250933    
  -7.07334458254    -7.02796293301    -7.13206154635    -7.28038588671    -7.18032430343    
  -7.01580584056    -7.18121216729    -7.35098574788    -7.10693734957    -7.00882000971    
  -7.4507311343    -7.56967350586    -6.99627420371    -6.70450713446    -7.11671602753    
  -7.76041867395    -8.12729440438    -7.79630344758    -7.03988894747    -6.49508330611    
  -6.5799094729    -7.18601445693    -7.84888864226    -8.13159227809    -7.79401040219    
  -7.05540521293    -6.83937620535    -7.23423789925    -7.34034680399    -7.13993607878    
  -7.25735577989    -7.4751535791    -7.27607159314    -7.00745098599    -7.11029249875    
  -7.28074106185    -7.23261554489    -7.10788828156    -7.04666524509    -7.0879242542    
  -7.16532233862    -7.1270390949    -7.03352266158    -7.06386208641    -7.1153053804    
  -7.01401704814    -6.90971395164    -6.95727678987    -7.00444084676    -6.94830897313    
  -6.91631104933    -6.95591700079    -6.96554323745    -6.92536360771    -6.8989052044    
  -6.88916356242    -6.86392478647    -6.83345755233    -6.82056640105    -6.82119293399    
  -6.81960181706    -6.78837119789    -6.72711238178    -6.68942843907    -6.68897940113    
  -6.68317739964    -6.67007032588    -6.68086010451    -6.69409755954    -6.66909629562    
  -6.6416621038    -6.65345372878    -6.65069341948    -6.59557985061    -6.5527684076    
  -6.55596533915    -6.55890113364    -6.5417725056    -6.52379693164    -6.51441142642    
  -6.51281581395    -6.51059622879    -6.49825245028    -6.48192282306    -6.46787932579    
  -6.44344289468    -6.4103009654    -6.41259333923    -6.44866180502    -6.43981237489    
  -6.38779001574    -6.37787528156    -6.39093248839    -6.34656344294    -6.29107772258    
  -6.30648755111    -6.3476563332    -6.35228288021    -6.33054719301    -6.30784641791    
  -6.3102716489    -6.32642850727    -6.29641087727    -6.24943936903    -6.28842913429    
  -6.34534724381    -6.27593182968    -6.19018444663    -6.24512579078    -6.31619414052    
  -6.27139834989    -6.18393849734    -6.1541085046    -6.25959581585    -6.41059990711    
  -6.3281584327    -6.10805413765    -6.13502063409    -6.32563626615    -6.36420979581    
  -6.23041642007    -6.05050660627    -6.07426063994    -6.37628493578    -6.50297076279    
  -6.2710989868    -6.09574498041    -6.1481801397    -6.25446980258    -6.30843745845    
  -6.28222060112    -6.23765488901    -6.25693648077    -6.27697267113    -6.2308264865    
  -6.21877364178    -6.29635181865    -6.32980520159    -6.27613288218    -6.26978658353    
  -6.32840858055    -6.33971364741    -6.30701686427    -6.3086047811    -6.32921078224    
  -6.32263469782    -6.31521750608    -6.33995346148    -6.378388935    -6.4075486448    
  -6.41690498859    -6.41283317475    -6.42172669656    -6.43820813383    -6.42995841258    
  -6.42004957068    -6.45598373499    -6.50041887785    -6.49950935137    -6.48969851817    
  -6.50897363171    -6.52729521859    -6.52587242796    -6.52973175395    -6.54753292033    
  -6.56183518902    -6.57227526525    -6.59344777483    -6.62685456614    -6.66378202467    
  -6.68127301887    -6.66455922346    -6.65344546016    -6.67344508905    -6.67838784045    
  -6.65519360058    -6.66522441504    -6.71889901205    -6.76179324621    -6.77758404214    
  -6.78315048961    -6.79931555273    -6.83940448859    -6.86575697001    -6.84924591509    
  -6.85454106051    -6.91365722386    -6.93526133014    -6.90212907652    -6.93332552176    
  -7.00839716522    -6.96563837939    -6.87618671731    -6.94301716892    -7.06069684898    
  -7.0371573453    -6.99024570061    -7.05903241323    -7.1401663835    -7.13759250933    
  -7.07334458254    -7.02796293301    -7.13206154635    -7.28038588671    -7.18032430343    
  -7.01580584056    -7.18121216729    -7.35098574788    -7.10693734957    -7.00882000971    
  -7.4507311343    -7.56967350586    -6.99627420371    -6.70450713446    -7.11671602753    
  -7.76041867395    -8.12729440438    -7.79630344758    -7.03988894747    -6.49508330611    
  -6.5799094729    -6.65972559126    -7.50280202846    -8.11956646474    -8.09202058507    
  -7.51157306034    -6.80435476507    -6.79033609022    -7.38891422338    -7.50624798799    
  -7.16092478636    -7.178936704    -7.3927328415    -7.24943428164    -7.04439623874    
  -7.17221785042    -7.32213217687    -7.22712893287    -7.08771680827    -7.06088951233    
  -7.13045315333    -7.20189281204    -7.13145341746    -7.00632209725    -7.03869947771    
  -7.11359761256    -7.02934820778    -6.93845268032    -7.00235746219    -7.05678387887    
  -6.99038268143    -6.93740771356    -6.95373643366    -6.94551393438    -6.89638283622    
  -6.86941169632    -6.86811053834    -6.8598026317    -6.84226355962    -6.82595104826    
  -6.81823379896    -6.81696141567    -6.79536713268    -6.74974315138    -6.72725494691    
  -6.73612547847    -6.73032029908    -6.7093668043    -6.70976932426    -6.71203960314    
  -6.67527544801    -6.63413272568    -6.63199112645    -6.62965558724    -6.59453285512    
  -6.56420967043    -6.5624523057    -6.57030177991    -6.56989116178    -6.55072411465    
  -6.52177560555    -6.50459459379    -6.49921047249    -6.4949940382    -6.4863572507    
  -6.47065882784    -6.44942104383    -6.42940521059    -6.42701388177    -6.43677493463    
  -6.41914916139    -6.38285986918    -6.38430472687    -6.39923886542    -6.35910380723    
  -6.31251605809    -6.33735491729    -6.3757873016    -6.36016038433    -6.32726519872    
  -6.31480730366    -6.31830583251    -6.31710793976    -6.27867748298    -6.24139599055    
  -6.29718085673    -6.36480012984    -6.28873456219    -6.18778431522    -6.23311359362    
  -6.29966522116    -6.25911065722    -6.21160420188    -6.23723365862    -6.29986562749    
  -6.32353979702    -6.21065640047    -6.08955456676    -6.23875158216    -6.4624522605    
  -6.37169445993    -6.12400256659    -6.02881100826    -6.15218748423    -6.40096301434    
  -6.43174987324    -6.17313953207    -6.07567193078    -6.24622846961    -6.35139855495    
  -6.30514106227    -6.23014228353    -6.20573793131    -6.26234294214    -6.30151138119    
  -6.24081522777    -6.21480941798    -6.30308479346    -6.34649231051    -6.28615113017    
  -6.26627247008    -6.31546822407    -6.33014461457    -6.30585363337    -6.30517474435    
  -6.32654485343    -6.34274926087    -6.35490271141    -6.36974827488    -6.38356102086    
  -6.39113884738    -6.38883153086    -6.38506964841    -6.40334915588    -6.43305349615    
  -6.43486065081    -6.42616239032    -6.45143765994    -6.4827098157    -6.47816729312    
  -6.47445513317    -6.50398887601    -6.52417290764    -6.5135623156    -6.51534640549    
  -6.54642250545    -6.58145400921    -6.60240193008    -6.60267120741    -6.60377246262    
  -6.63358526375    -6.6582143993    -6.64134891594    -6.6328112427    -6.66861336549    
  -6.69393484298    -6.68684778754    -6.70481398765    -6.75635793829    -6.78716657193    
  -6.78485087995    -6.77307437263    -6.7788643217    -6.8191059883    -6.84684594408    
  -6.82542759884    -6.83423598326    -6.91024938553    -6.93324089245    -6.87816369066    
  -6.89559054368    -6.97816182043    -6.95412134719    -6.88093739267    -6.94879549976    
  -7.06073587461    -7.03860188533    -6.99062613343    -7.04599698438    -7.11416617902    
  -7.10907581492    -7.04746209043    -7.00844738317    -7.12849266711    -7.28954535807    
  -7.17201065202    -6.9805183008    -7.15462028854    -7.36676217033    -7.16859517412    
  -7.05543153414    -7.39365322968    -7.42535331911    -6.87098375125    -6.71783359997    
  -7.29851385676    -7.94083196446    -8.12293663078    -7.57706040848    -6.72408905682    
  -6.31343298997    -6.65972559126    -7.50280202846    -8.11956646474    -8.09202058507    
  -7.51157306034    -6.80435476507    -6.79033609022    -7.38891422338    -7.50624798799    
  -7.16092478636    -7.178936704    -7.3927328415    -7.24943428164    -7.04439623874    
  -7.17221785042    -7.32213217687    -7.22712893287    -7.08771680827    -7.06088951233    
  -7.13045315333    -7.20189281204    -7.13145341746    -7.00632209725    -7.03869947771    
  -7.11359761256    -7.02934820778    -6.93845268032    -7.00235746219    -7.05678387887    
  -6.99038268143    -6.93740771356    -6.95373643366    -6.94551393438    -6.89638283622    
  -6.86941169632    -6.86811053834    -6.8598026317    -6.84226355962    -6.82595104826    
  -6.81823379896    -6.81696141567    -6.79536713268    -6.74974315138    -6.72725494691    
  -6.73612547847    -6.73032029908    -6.7093668043    -6.70976932426    -6.71203960314    
  -6.67527544801    -6.63413272568    -6.63199112645    -6.62965558724    -6.59453285512    
  -6.56420967043    -6.5624523057    -6.57030177991    -6.56989116178    -6.55072411465    
  -6.52177560555    -6.50459459379    -6.49921047249    -6.4949940382    -6.4863572507    
  -6.47065882784    -6.44942104383    -6.42940521059    -6.42701388177    -6.43677493463    
  -6.41914916139    -6.38285986918    -6.38430472687    -6.39923886542    -6.35910380723    
  -6.31251605809    -6.33735491729    -6.3757873016    -6.36016038433    -6.32726519872    
  -6.31480730366    -6.31830583251    -6.31710793976    -6.27867748298    -6.24139599055    
  -6.29718085673    -6.36480012984    -6.28873456219    -6.18778431522    -6.23311359362    
  -6.29966522116    -6.25911065722    -6.21160420188    -6.23723365862    -6.29986562749    
  -6.32353979702    -6.21065640047    -6.08955456676    -6.23875158216    -6.4624522605    
  -6.37169445993    -6.12400256659    -6.02881100826    -6.15218748423    -6.40096301434    
  -6.43174987324    -6.17313953207    -6.07567193078    -6.24622846961    -6.35139855495    
  -6.30514106227    -6.23014228353    -6.20573793131    -6.26234294214    -6.30151138119    
  -6.24081522777    -6.21480941798    -6.30308479346    -6.34649231051    -6.28615113017    
  -6.26627247008    -6.31546822407    -6.33014461457    -6.30585363337    -6.30517474435    
  -6.32654485343    -6.34274926087    -6.35490271141    -6.36974827488    -6.38356102086    
  -6.39113884738    -6.38883153086    -6.38506964841    -6.40334915588    -6.43305349615    
  -6.43486065081    -6.42616239032    -6.45143765994    -6.4827098157    -6.47816729312    
  -6.47445513317    -6.50398887601    -6.52417290764    -6.5135623156    -6.51534640549    
  -6.54642250545    -6.58145400921    -6.60240193008    -6.60267120741    -6.60377246262    
  -6.63358526375    -6.6582143993    -6.64134891594    -6.6328112427    -6.66861336549    
  -6.69393484298    -6.68684778754    -6.70481398765    -6.75635793829    -6.78716657193    
  -6.78485087995    -6.77307437263    -6.7788643217    -6.8191059883    -6.84684594408    
  -6.82542759884    -6.83423598326    -6.91024938553    -6.93324089245    -6.87816369066    
  -6.89559054368    -6.97816182043    -6.95412134719    -6.88093739267    -6.94879549976    
  -7.06073587461    -7.03860188533    -6.99062613343    -7.04599698438    -7.11416617902    
  -7.10907581492    -7.04746209043    -7.00844738317    -7.12849266711    -7.28954535807    
  -7.17201065202    -6.9805183008    -7.15462028854    -7.36676217033    -7.16859517412    
  -7.05543153414    -7.39365322968    -7.42535331911    -6.87098375125    -6.71783359997    
  -7.29851385676    -7.94083196446    -8.12293663078    -7.57706040848    -6.72408905682    
  -6.31343298997    -6.65972559126    -6.91337586931    -7.74164583482    -8.16723920892    
  -7.86835798959    -7.20404144987    -6.69327732376    -6.90611656713    -7.58836098282    
  -7.6091142529    -7.09575898933    -7.06872283417    -7.34892368899    -7.2738615171    
  -7.09672407984    -7.2052259537    -7.32281824378    -7.21501893035    -7.08928103593    
  -7.09049202159    -7.16750516807    -7.21675659209    -7.11490814349    -6.97251079402    
  -7.02138369468    -7.12763358221    -7.05947803298    -6.97504837098    -7.0456112127    
  -7.09436458186    -7.00512968522    -6.93256840984    -6.94208843854    -6.92996145117    
  -6.8767791615    -6.85032721437    -6.85743968398    -6.86550046116    -6.85709111531    
  -6.82848935478    -6.80666556823    -6.80977917174    -6.80624749908    -6.78394358078    
  -6.78321541558    -6.80265903326    -6.78393692177    -6.73452235401    -6.71470929804    
  -6.71017042198    -6.67344867899    -6.62940682454    -6.6168660427    -6.6177656989    
  -6.61002042442    -6.59793708179    -6.58907616627    -6.58891310282    -6.5891193464    
  -6.56749109633    -6.53019701724    -6.50374706251    -6.49175328778    -6.48596231589    
  -6.4811052606    -6.4739531424    -6.46472552982    -6.45408798313    -6.44190495078    
  -6.42528819604    -6.39811591245    -6.37569252897    -6.39144900301    -6.41680133513    
  -6.39110019511    -6.35481921573    -6.37320716183    -6.39231603375    -6.35504308678    
  -6.31347155129    -6.31024032481    -6.32234283142    -6.32073302239    -6.28234660587    
  -6.24445029559    -6.28851883276    -6.34655940776    -6.28591097924    -6.20653423217    
  -6.25076977951    -6.30067498244    -6.24860836441    -6.22510027616    -6.29561351202    
  -6.32405724737    -6.24738503192    -6.12801178972    -6.09800031358    -6.30448845712    
  -6.50585935345    -6.33515135915    -6.06714108624    -6.09283679681    -6.27115308103    
  -6.37064323724    -6.2727856407    -6.05670463684    -6.09604703359    -6.38022961324    
  -6.44909590359    -6.27194677151    -6.15083140381    -6.17024903573    -6.27985858697    
  -6.34505394305    -6.27295339004    -6.22310469859    -6.29822519607    -6.33944545038    
  -6.28188150743    -6.25951668761    -6.30291347513    -6.32229461644    -6.30975367467    
  -6.31406005327    -6.33856306291    -6.3654888938    -6.38280637654    -6.38458685537    
  -6.37857133393    -6.3716823863    -6.36359189897    -6.3627732264    -6.38966242287    
  -6.42940385296    -6.43771559481    -6.42913608949    -6.44741628247    -6.46911201319    
  -6.45868986223    -6.45681667613    -6.49624027171    -6.52593781989    -6.51844373873    
  -6.51853494715    -6.54834146968    -6.590304235    -6.61590356367    -6.5959543675    
  -6.56843362338    -6.59418147622    -6.63098540756    -6.62376015224    -6.62601796229    
  -6.67937678939    -6.72499835231    -6.73270713406    -6.74756093425    -6.77943100329    
  -6.79107319504    -6.77729787169    -6.76036182885    -6.76439233624    -6.80290502749    
  -6.82668407581    -6.79965717383    -6.81056075793    -6.89765574622    -6.91899284447    
  -6.84519398205    -6.85393092802    -6.95110570033    -6.95958402066    -6.91435407032    
  -6.97706306781    -7.06587894675    -7.03139058564    -6.97409688183    -7.01258824351    
  -7.07307277856    -7.08072039833    -7.04038637069    -7.01591551319    -7.12878319585    
  -7.26654460534    -7.13420442112    -6.95387720295    -7.17184309605    -7.42728315593    
  -7.22655823106    -7.04260498818    -7.26900395121    -7.29813854336    -6.90372319974    
  -6.90225852641    -7.49313100117    -7.95962366147    -7.89874189705    -7.27824360389    
  -6.55352279994    -6.378987364    -6.91337586931    -7.74164583482    -8.16723920892    
  -7.86835798959    -7.20404144987    -6.69327732376    -6.90611656713    -7.58836098282    
  -7.6091142529    -7.09575898933    -7.06872283417    -7.34892368899    -7.2738615171    
  -7.09672407984    -7.2052259537    -7.32281824378    -7.21501893035    -7.08928103593    
  -7.09049202159    -7.16750516807    -7.21675659209    -7.11490814349    -6.97251079402    
  -7.02138369468    -7.12763358221    -7.05947803298    -6.97504837098    -7.0456112127    
  -7.09436458186    -7.00512968522    -6.93256840984    -6.94208843854    -6.92996145117    
  -6.8767791615    -6.85032721437    -6.85743968398    -6.86550046116    -6.85709111531    
  -6.82848935478    -6.80666556823    -6.80977917174    -6.80624749908    -6.78394358078    
  -6.78321541558    -6.80265903326    -6.78393692177    -6.73452235401    -6.71470929804    
  -6.71017042198    -6.67344867899    -6.62940682454    -6.6168660427    -6.6177656989    
  -6.61002042442    -6.59793708179    -6.58907616627    -6.58891310282    -6.5891193464    
  -6.56749109633    -6.53019701724    -6.50374706251    -6.49175328778    -6.48596231589    
  -6.4811052606    -6.4739531424    -6.46472552982    -6.45408798313    -6.44190495078    
  -6.42528819604    -6.39811591245    -6.37569252897    -6.39144900301    -6.41680133513    
  -6.39110019511    -6.35481921573    -6.37320716183    -6.39231603375    -6.35504308678    
  -6.31347155129    -6.31024032481    -6.32234283142    -6.32073302239    -6.28234660587    
  -6.24445029559    -6.28851883276    -6.34655940776    -6.28591097924    -6.20653423217    
  -6.25076977951    -6.30067498244    -6.24860836441    -6.22510027616    -6.29561351202    
  -6.32405724737    -6.24738503192    -6.12801178972    -6.09800031358    -6.30448845712    
  -6.50585935345    -6.33515135915    -6.06714108624    -6.09283679681    -6.27115308103    
  -6.37064323724    -6.2727856407    -6.05670463684    -6.09604703359    -6.38022961324    
  -6.44909590359    -6.27194677151    -6.15083140381    -6.17024903573    -6.27985858697    
  -6.34505394305    -6.27295339004    -6.22310469859    -6.29822519607    -6.33944545038    
  -6.28188150743    -6.25951668761    -6.30291347513    -6.32229461644    -6.30975367467    
  -6.31406005327    -6.33856306291    -6.3654888938    -6.38280637654    -6.38458685537    
  -6.37857133393    -6.3716823863    -6.36359189897    -6.3627732264    -6.38966242287    
  -6.42940385296    -6.43771559481    -6.42913608949    -6.44741628247    -6.46911201319    
  -6.45868986223    -6.45681667613    -6.49624027171    -6.52593781989    -6.51844373873    
  -6.51853494715    -6.54834146968    -6.590304235    -6.61590356367    -6.5959543675    
  -6.56843362338    -6.59418147622    -6.63098540756    -6.62376015224    -6.62601796229    
  -6.67937678939    -6.72499835231    -6.73270713406    -6.74756093425    -6.77943100329    
  -6.79107319504    -6.77729787169    -6.76036182885    -6.76439233624    -6.80290502749    
  -6.82668407581    -6.79965717383    -6.81056075793    -6.89765574622    -6.91899284447    
  -6.84519398205    -6.85393092802    -6.95110570033    -6.95958402066    -6.91435407032    
  -6.97706306781    -7.06587894675    -7.03139058564    -6.97409688183    -7.01258824351    
  -7.07307277856    -7.08072039833    -7.04038637069    -7.01591551319    -7.12878319585    
  -7.26654460534    -7.13420442112    -6.95387720295    -7.17184309605    -7.42728315593    
  -7.22655823106    -7.04260498818    -7.26900395121    -7.29813854336    -6.90372319974    
  -6.90225852641    -7.49313100117    -7.95962366147    -7.89874189705    -7.27824360389    
  -6.55352279994    -6.378987364    -6.91337586931    -7.22816162866    -7.79000429636    
  -7.95032678657    -7.58146079847    -7.06957930834    -6.83008934773    -7.16130681061    
  -7.73525981651    -7.59259015801    -6.99316521936    -7.02984357382    -7.42856215406    
  -7.37441530982    -7.13750955426    -7.17682404099    -7.26983761923    -7.19856175546    
  -7.10916663358    -7.11006036188    -7.16916669397    -7.20352532402    -7.10560388202    
  -6.98318913047    -7.05232258236    -7.16377944661    -7.07640553644    -6.96701897812    
  -7.0257228795    -7.06703789155    -6.97073841235    -6.90836327089    -6.9482789661    
  -6.96675973684    -6.93020894527    -6.90081792304    -6.89631231982    -6.90177543893    
  -6.89198062217    -6.85010672232    -6.81568076126    -6.81820801933    -6.81340639922    
  -6.78236874026    -6.77768309528    -6.79911051935    -6.77357653205    -6.70989971285    
  -6.68385029138    -6.68966818304    -6.68065567697    -6.66050814454    -6.64817152606    
  -6.64468482182    -6.64402185005    -6.63363776042    -6.61165064102    -6.59562541054    
  -6.58604181706    -6.56314049461    -6.53352872632    -6.52172118215    -6.51912772039    
  -6.50460538922    -6.48616142164    -6.47723070448    -6.47421252413    -6.47041232098    
  -6.46084581974    -6.44293129967    -6.41785049018    -6.39731786795    -6.40099965194    
  -6.41173121074    -6.39332503584    -6.36906212182    -6.37631843295    -6.37999149965    
  -6.34538560926    -6.31162751662    -6.31042569085    -6.32684206782    -6.33717821183    
  -6.31579325809    -6.28158266071    -6.28858897022    -6.30444791514    -6.26009177745    
  -6.22746927021    -6.29221324209    -6.32861645988    -6.24280725229    -6.20134110526    
  -6.28252117797    -6.31277782131    -6.23030262142    -6.15012157213    -6.16613463977    
  -6.32131417122    -6.42711173061    -6.24465985685    -6.06266297465    -6.21486220201    
  -6.39681203569    -6.31349908259    -6.10711410983    -5.98650147166    -6.14478705844    
  -6.45577767466    -6.45884673991    -6.19900113281    -6.0916250839    -6.18045034073    
  -6.31263037905    -6.36462004924    -6.28196270312    -6.21841140443    -6.27197564416    
  -6.30437377581    -6.25792219907    -6.24794090742    -6.29691440185    -6.32015250574    
  -6.31113437401    -6.31664661695    -6.33577812667    -6.34755102601    -6.34727587687    
  -6.33987999023    -6.344602621    -6.36766384895    -6.38247750416    -6.38340623869    
  -6.39841956611    -6.4218740325    -6.41849775043    -6.40886844638    -6.43897364593    
  -6.47428856251    -6.46592071565    -6.4565054274    -6.48727734606    -6.52196660607    
  -6.53214598564    -6.53050746661    -6.53345648261    -6.55454813483    -6.57597567926    
  -6.56027221776    -6.54454120451    -6.59125847683    -6.64611139546    -6.640858219    
  -6.63296765441    -6.67203994925    -6.70647349245    -6.70640653455    -6.70605303101    
  -6.71891264795    -6.72824284105    -6.73213876603    -6.7416854731    -6.76808207897    
  -6.81377149237    -6.83289614051    -6.79728247934    -6.80184746065    -6.88810691107    
  -6.91146382711    -6.83971140381    -6.848882182    -6.94759254404    -6.96475600564    
  -6.92636661964    -6.97768307379    -7.04777037178    -7.00625800654    -6.94787751416    
  -6.98318848878    -7.04795444408    -7.0733821473    -7.05546521598    -7.0415607591    
  -7.13043638804    -7.22600595759    -7.08348646836    -6.93080508373    -7.18953880383    
  -7.46732582806    -7.24159753205    -6.98027337723    -7.12149239076    -7.22408107706    
  -7.08070682472    -7.2110107738    -7.67597593704    -7.87192097627    -7.59702205546    
  -7.0519307857    -6.61489828903    -6.68880636027    -7.22816162866    -7.79000429636    
  -7.95032678657    -7.58146079847    -7.06957930834    -6.83008934773    -7.16130681061    
  -7.73525981651    -7.59259015801    -6.99316521936    -7.02984357382    -7.42856215406    
  -7.37441530982    -7.13750955426    -7.17682404099    -7.26983761923    -7.19856175546    
  -7.10916663358    -7.11006036188    -7.16916669397    -7.20352532402    -7.10560388202    
  -6.98318913047    -7.05232258236    -7.16377944661    -7.07640553644    -6.96701897812    
  -7.0257228795    -7.06703789155    -6.97073841235    -6.90836327089    -6.9482789661    
  -6.96675973684    -6.93020894527    -6.90081792304    -6.89631231982    -6.90177543893    
  -6.89198062217    -6.85010672232    -6.81568076126    -6.81820801933    -6.81340639922    
  -6.78236874026    -6.77768309528    -6.79911051935    -6.77357653205    -6.70989971285    
  -6.68385029138    -6.68966818304    -6.68065567697    -6.66050814454    -6.64817152606    
  -6.64468482182    -6.64402185005    -6.63363776042    -6.61165064102    -6.59562541054    
  -6.58604181706    -6.56314049461    -6.53352872632    -6.52172118215    -6.51912772039    
  -6.50460538922    -6.48616142164    -6.47723070448    -6.47421252413    -6.47041232098    
  -6.46084581974    -6.44293129967    -6.41785049018    -6.39731786795    -6.40099965194    
  -6.41173121074    -6.39332503584    -6.36906212182    -6.37631843295    -6.37999149965    
  -6.34538560926    -6.31162751662    -6.31042569085    -6.32684206782    -6.33717821183    
  -6.31579325809    -6.28158266071    -6.28858897022    -6.30444791514    -6.26009177745    
  -6.22746927021    -6.29221324209    -6.32861645988    -6.24280725229    -6.20134110526    
  -6.28252117797    -6.31277782131    -6.23030262142    -6.15012157213    -6.16613463977    
  -6.32131417122    -6.42711173061    -6.24465985685    -6.06266297465    -6.21486220201    
  -6.39681203569    -6.31349908259    -6.10711410983    -5.98650147166    -6.14478705844    
  -6.45577767466    -6.45884673991    -6.19900113281    -6.0916250839    -6.18045034073    
  -6.31263037905    -6.36462004924    -6.28196270312    -6.21841140443    -6.27197564416    
  -6.30437377581    -6.25792219907    -6.24794090742    -6.29691440185    -6.32015250574    
  -6.31113437401    -6.31664661695    -6.33577812667    -6.34755102601    -6.34727587687    
  -6.33987999023    -6.344602621    -6.36766384895    -6.38247750416    -6.38340623869    
  -6.39841956611    -6.4218740325    -6.41849775043    -6.40886844638    -6.43897364593    
  -6.47428856251    -6.46592071565    -6.4565054274    -6.48727734606    -6.52196660607    
  -6.53214598564    -6.53050746661    -6.53345648261    -6.55454813483    -6.57597567926    
  -6.56027221776    -6.54454120451    -6.59125847683    -6.64611139546    -6.640858219    
  -6.63296765441    -6.67203994925    -6.70647349245    -6.70640653455    -6.70605303101    
  -6.71891264795    -6.72824284105    -6.73213876603    -6.7416854731    -6.76808207897    
  -6.81377149237    -6.83289614051    -6.79728247934    -6.80184746065    -6.88810691107    
  -6.91146382711    -6.83971140381    -6.848882182    -6.94759254404    -6.96475600564    
  -6.92636661964    -6.97768307379    -7.04777037178    -7.00625800654    -6.94787751416    
  -6.98318848878    -7.04795444408    -7.0733821473    -7.05546521598    -7.0415607591    