#     Embedding Potential
    
  CRYSTAL 
    
  PRIMVEC    
  7.20000002685    0.0    0.0    
  0.0    7.20000002685    0.0    
  0.0    0.0    7.20000002685    
  PRIMCOORD    
  3    1    
  O    3.60000001342    3.60000001342    3.33807528045    
  H    3.60000001342    4.3716277003    3.9426163227    
  H    3.60000001342    2.82837232655    3.9426163227    
  BEGIN_BLOCK_DATAGRID_2D    
  2d_datagrid_from_pbcpy    
  BEGIN_DATAGRID_2D    
  401    401    
  0.0    0.0    3.33807528246    
  0.0    9.80244438355    0.0    
  9.80244438355    0.0    0.0    
  -1.3079608721    -1.30858596277    -1.31029629023    -1.31248725378    -1.31455425272    
  -1.31601086384    -1.31697325168    -1.3177491533    -1.31864638547    -1.31991831781    
  -1.32146248329    -1.32303348417    -1.32438553605    -1.32530826654    -1.32589127419    
  -1.32637518418    -1.32700177118    -1.32799090949    -1.32931767269    -1.33080372638    
  -1.33226837525    -1.33353803297    -1.33454678989    -1.33531229915    -1.33585440264    
  -1.33619552259    -1.33641311895    -1.3366373965    -1.33700068149    -1.33763144222    
  -1.33853554254    -1.3395738203    -1.3405987314    -1.3414650642    -1.34214791448    
  -1.34279836051    -1.34358145553    -1.34466075902    -1.34605625403    -1.347527118    
  -1.34880493669    -1.3496219325    -1.34985648951    -1.34971877484    -1.34946474122    
  -1.34935026269    -1.34955673553    -1.35005264222    -1.35076866284    -1.35163547742    
  -1.35258206974    -1.35353127043    -1.35440451535    -1.35512324036    -1.35563470713    
  -1.35600550114    -1.3563366462    -1.35672916945    -1.35726794602    -1.35794247383    
  -1.35870736597    -1.35951718359    -1.36032926007    -1.36112203479    -1.36188365422    
  -1.36260231617    -1.3632640418    -1.36383316236    -1.36426155979    -1.36450096807    
  -1.36451084531    -1.36435370996    -1.36416546627    -1.36408359236    -1.3642400158    
  -1.36466416418    -1.36529525653    -1.36606943225    -1.36692226093    -1.36777403021    
  -1.36852842866    -1.36908831105    -1.36935936512    -1.36936585286    -1.36929113954    
  -1.36932974945    -1.36967432169    -1.37037966448    -1.37127137346    -1.37215338724    
  -1.37283016372    -1.37318656341    -1.37327407384    -1.3731648744    -1.37293118539    
  -1.37266489981    -1.37250908908    -1.37261504055    -1.37313402095    -1.37412746737    
  -1.37536112371    -1.37653998087    -1.37736902978    -1.37763275349    -1.37744861194    
  -1.37702123674    -1.37655525981    -1.37623239727    -1.37611192665    -1.3762124009    
  -1.37655234554    -1.37713389678    -1.37784676648    -1.37853349243    -1.37903645071    
  -1.37922162639    -1.37916551251    -1.37905515787    -1.37907859159    -1.37940355787    
  -1.37995809803    -1.38051373858    -1.38083931227    -1.38071919068    -1.38018812618    
  -1.37948318572    -1.37884722475    -1.37851620709    -1.37856828665    -1.37892419375    
  -1.37949784436    -1.38020262682    -1.38093368278    -1.38156368311    -1.38196391477    
  -1.38200779049    -1.38169060472    -1.38119338098    -1.38071275265    -1.38044430365    
  -1.38046737569    -1.38064111066    -1.38080010998    -1.38077929151    -1.38050340601    
  -1.38011015639    -1.37976810583    -1.37964576452    -1.37983708558    -1.38021309685    
  -1.38060334144    -1.38083736275    -1.38080411127    -1.38061818522    -1.38044774911    
  -1.38046096748    -1.38077609617    -1.38126985391    -1.38174598969    -1.38200823705    
  -1.38189400602    -1.38144926007    -1.38079969807    -1.38007117912    -1.37938668361    
  -1.37884615193    -1.37853846482    -1.37855243305    -1.37895821971    -1.3796299268    
  -1.38032435526    -1.38079672529    -1.38082065866    -1.38043023431    -1.37985268135    
  -1.3793197908    -1.37905274827    -1.37906334891    -1.37917155568    -1.37919024624    
  -1.37893763071    -1.37838659834    -1.37768493233    -1.37698981043    -1.37645689195    
  -1.37617188088    -1.37612272579    -1.37629010091    -1.37665391473    -1.37713065618    
  -1.37752688095    -1.37763818428    -1.37726094586    -1.37633652895    -1.37511988533    
  -1.37390690584    -1.37299331547    -1.37256765691    -1.37252701753    -1.37271941266    
  -1.37299285926    -1.37321080943    -1.37328989714    -1.37315820184    -1.37274380297    
  -1.37201519882    -1.37111819224    -1.37024719005    -1.36959660032    -1.36931570611    
  -1.3693010935    -1.36936143691    -1.36930532199    -1.36896659178    -1.36836102019    
  -1.36758410544    -1.36673168447    -1.36589747188    -1.36515524939    -1.36456788143    
  -1.36419812075    -1.36409973989    -1.36421421409    -1.36440663076    -1.36454061499    
  -1.36448535454    -1.36420553153    -1.3637461624    -1.36315476586    -1.36247818592    
  -1.36174664392    -1.36097310074    -1.36016971492    -1.35934902832    -1.35853805596    
  -1.35778237071    -1.3571287615    -1.35662316355    -1.35625680881    -1.35593407481    
  -1.35555162108    -1.35500655071    -1.3542531289    -1.35335857095    -1.35240334322    
  -1.35146790256    -1.35062927766    -1.34995600831    -1.34951534299    -1.34937450009    
  -1.34953278145    -1.34977703861    -1.34985269497    -1.3495051739    -1.34856773497    
  -1.3472230073    -1.34574047143    -1.34438960787    -1.34338296279    -1.3426444234    
  -1.34200661467    -1.34130212604    -1.34039505412    -1.33935420009    -1.33833015036    
  -1.33747370589    -1.33691452912    -1.33660433105    -1.33640569214    -1.33618052754    
  -1.33579729054    -1.33519702763    -1.33436604835    -1.33329134909    -1.33196666616    
  -1.33048706407    -1.32902585565    -1.32775838078    -1.32685046236    -1.32626665354    
  -1.32577956626    -1.32515416246    -1.3241618405    -1.32277648581    -1.32121032579    
  -1.31968925506    -1.31843558633    -1.31748919108    -1.31662439869    -1.31559459895    
  -1.31415556271    -1.31228813151    -1.31037990157    -1.30886122613    -1.30796918178    
  -1.30885427463    -1.31070626542    -1.31292055346    -1.31489277003    -1.31622848235    
  -1.31713014085    -1.3179055623    -1.31886255965    -1.32020681103    -1.32177557472    
  -1.3233230663    -1.32460350135    -1.32544162408    -1.32598620519    -1.32647901134    
  -1.32716181718    -1.32822950608    -1.32960166984    -1.33109775648    -1.33253707073    
  -1.33375556285    -1.33471514701    -1.33543536717    -1.33593606523    -1.33624385104    
  -1.33645233971    -1.33669340986    -1.33709938774    -1.33779085673    -1.33873283288    
  -1.33978010758    -1.34078513673    -1.34160908271    -1.34227259914    -1.34293601729    
  -1.34376439038    -1.34491526155    -1.34634663547    -1.34780084148    -1.34900946533    
  -1.34970926031    -1.34985080632    -1.34967017841    -1.34942332934    -1.34936461291    
  -1.34963319298    -1.35017763887    -1.35092863066    -1.35181683009    -1.35277011674    
  -1.35371063435    -1.35455981879    -1.35523920243    -1.35571518605    -1.3560702677    
  -1.3564054745    -1.3568218262    -1.35739070817    -1.35808649953    -1.35886376145    
  -1.35967705509    -1.36048632386    -1.36127392949    -1.36202806978    -1.36273694253    
  -1.3633842276    -1.36392960336    -1.36432480886    -1.36452157807    -1.3644890456    
  -1.36431500049    -1.36413675571    -1.36409178937    -1.36430372299    -1.3647734031    
  -1.36543752772    -1.36623223622    -1.36709204361    -1.36793240075    -1.36865637277    
  -1.36916681444    -1.36937623471    -1.3693515179    -1.36928367438    -1.36936722844    
  -1.36978842877    -1.37054568113    -1.37145092447    -1.37230809739    -1.37292450315    
  -1.37322259175    -1.3732659188    -1.3731266637    -1.37287753133    -1.37262096122    
  -1.37250447751    -1.37267936758    -1.3732955967    -1.37435927972    -1.37560543036    
  -1.37673903954    -1.37746558673    -1.37762554317    -1.37737768677    -1.37692664944    
  -1.3079608721    -1.30850557083    -1.30916325523    -1.31094997012    -1.31323483292    
  -1.31538696108    -1.31689840272    -1.3178880303    -1.31867399407    -1.31957452715    
  -1.32085180131    -1.32240160212    -1.32397254699    -1.32531285513    -1.32620727253    
  -1.3267499587    -1.32719085389    -1.32778108397    -1.32874924945    -1.33007216343    
  -1.33156885275    -1.33305591597    -1.33435696007    -1.33540174594    -1.33620241547    
  -1.33677326838    -1.3371313757    -1.33735292018    -1.33757073364    -1.33791992645    
  -1.33853177747    -1.33941580278    -1.34043748796    -1.3414539942    -1.34232473465    
  -1.34302527733    -1.34370109863    -1.34451116747    -1.34561298761    -1.34702322822    
  -1.34850273344    -1.34978528266    -1.3506052905    -1.35084301181    -1.35070975475    
  -1.35046251241    -1.35035819783    -1.35057796617    -1.35108639934    -1.35180962708    
  -1.35267377917    -1.35360565574    -1.35453448877    -1.35539006142    -1.35610215691    
  -1.3566240209    -1.3570173035    -1.3573749417    -1.35778987546    -1.35834003169    
  -1.35901468531    -1.35977068622    -1.36056483604    -1.36135690106    -1.36212921903    
  -1.36287450875    -1.36358554388    -1.36425247681    -1.36483933859    -1.36529516756    
  -1.36556882385    -1.365616738    -1.36549634979    -1.36533702425    -1.36526966898    
  -1.36542009478    -1.36581999157    -1.36641821504    -1.36716079301    -1.36799299823    
  -1.36883985223    -1.36960437999    -1.37018850158    -1.37049688369    -1.370549154    
  -1.37051919519    -1.3705917089    -1.37094960257    -1.37164460453    -1.37251029236    
  -1.37335963179    -1.37400608668    -1.37434024265    -1.37441251315    -1.37429315914    
  -1.37405248329    -1.37378083401    -1.3736207086    -1.37372297609    -1.37423848504    
  -1.37522898159    -1.37646291239    -1.3776484629    -1.37849381859    -1.37878483945    
  -1.37863274858    -1.37823394753    -1.37778483814    -1.37746085826    -1.37732543561    
  -1.37740474194    -1.37772492392    -1.3782946776    -1.37900299467    -1.37968863797    
  -1.38019019817    -1.38037015491    -1.38030399246    -1.38017906198    -1.38018370665    
  -1.38048630356    -1.38101929492    -1.38156106848    -1.38188736056    -1.38178884104    
  -1.38129680727    -1.38063699029    -1.38004068412    -1.37973263721    -1.37978771171    
  -1.38013125037    -1.38068212376    -1.38135868037    -1.38206121332    -1.38266778066    
  -1.38305507102    -1.38310181956    -1.38280409766    -1.38233677921    -1.38188976581    
  -1.38165192511    -1.38169759927    -1.38188418272    -1.38204489183    -1.38201326858    
  -1.38171529092    -1.38129605948    -1.38093242941    -1.38080120038    -1.3810010789    
  -1.38139727347    -1.38181154032    -1.382065636    -1.38204220921    -1.38185519709    
  -1.38167344214    -1.38166578687    -1.38195197085    -1.38241409599    -1.3828624725    
  -1.3831073954    -1.38299167262    -1.38255945971    -1.38193189261    -1.381230262    
  -1.38057289093    -1.38005435136    -1.37975781418    -1.37976637817    -1.38014548512    
  -1.38077493173    -1.38142344542    -1.38185825685    -1.38186426623    -1.38147646973    
  -1.38091533008    -1.38040569038    -1.3801619472    -1.38019224217    -1.38031575737    
  -1.38034469567    -1.38009666714    -1.37954612844    -1.37884488092    -1.3781542521    
  -1.37763394746    -1.37736894386    -1.37733979248    -1.37751927382    -1.37787947118    
  -1.3783347261    -1.37869928889    -1.37877743071    -1.37837418795    -1.37743603581    
  -1.37621537086    -1.37500452782    -1.374095677    -1.37367472838    -1.37363864386    
  -1.37383573539    -1.37411431662    -1.37433852131    -1.37442699159    -1.37431010048    
  -1.37391822105    -1.37322042227    -1.37235551994    -1.37150886195    -1.37086579744    
  -1.37056872997    -1.370519571    -1.37053656625    -1.37043787697    -1.37006614579    
  -1.36944035615    -1.3686567662    -1.36781196241    -1.3669997587    -1.36628792918    
  -1.3657299859    -1.36537929501    -1.36528095265    -1.36537663841    -1.36553768498    
  -1.3656340784    -1.36554126562    -1.36522844119    -1.36474366454    -1.36413745162    
  -1.36345949545    -1.36273921504    -1.36198497749    -1.36120417136    -1.36040459371    
  -1.35960946698    -1.35886179243    -1.35820586738    -1.35768519893    -1.35729266043    
  -1.35694073208    -1.35653475027    -1.35598045302    -1.35523534474    -1.35435921797    
  -1.35342386556    -1.35250108052    -1.35166272528    -1.35098083413    -1.3505274675    
  -1.35037465514    -1.35052521445    -1.35076545918    -1.35083948451    -1.35049138562    
  -1.34955290649    -1.34820441539    -1.34671294676    -1.34534553502    -1.34431345684    
  -1.34354529555    -1.3428802583    -1.34215751745    -1.34124661812    -1.34021443977    
  -1.33920670242    -1.33836933297    -1.33782730791    -1.33752923605    -1.33733538896    
  -1.33710537877    -1.33670570849    -1.33607939008    -1.33521714013    -1.33411039912    
  -1.3327573122    -1.33125682263    -1.32978571264    -1.3285227809    -1.32763701488    
  -1.3270899103    -1.32664508795    -1.32605828218    -1.32509186908    -1.3237171717    
  -1.32215145887    -1.32062610266    -1.31936877522    -1.31841869769    -1.31754080187    
  -1.31647839019    -1.31497727333    -1.31302035219    -1.31101900439    -1.30942964803    
  -1.30851556897    -1.30944389596    -1.31137777042    -1.3136863098    -1.31573887283    
  -1.31712319801    -1.31804791422    -1.31883125456    -1.31979144825    -1.32114156165    
  -1.32271531868    -1.32426093856    -1.32552664053    -1.32633339259    -1.32683638902    
  -1.32728674748    -1.32793559384    -1.32898582442    -1.33035718709    -1.33186642782    
  -1.33333014519    -1.33458134793    -1.33557722724    -1.33633178911    -1.33685933324    
  -1.33718142826    -1.33739160792    -1.33762450179    -1.33801522023    -1.33868721132    
  -1.33960942373    -1.34064133809    -1.34164011558    -1.34247132337    -1.34315451486    
  -1.34384410006    -1.34469904788    -1.34587096062    -1.34731571267    -1.34877762182    
  -1.34999046746    -1.35069318511    -1.35083806667    -1.35066227127    -1.35042279199    
  -1.35037499552    -1.35065707872    -1.35121336808    -1.35196999335    -1.35285309153    
  -1.35378989916    -1.35470991966    -1.35554293622    -1.35621881971    -1.3567082035    
  -1.35708719409    -1.35744873147    -1.35788574875    -1.35846363425    -1.35915761017    
  -1.35992447814    -1.36072103976    -1.36150985261    -1.36227744911    -1.36301660294    
  -1.36372008778    -1.36437523634    -1.36494047622    -1.36536467364    -1.36559668876    
  -1.36560243602    -1.36546412283    -1.36531249495    -1.36527845994    -1.36548020156    
  -1.3659231651    -1.36655389132    -1.36731840802    -1.36816059044    -1.36899905055    
  -1.36973598719    -1.37027332041    -1.37052233026    -1.37054396794    -1.37051952826    
  -1.37063371285    -1.37106334717    -1.37180647904    -1.37268368847    -1.37350794118    
  -1.37409543026    -1.37437279699    -1.37440203047    -1.37425339166    -1.37399767702    
  -1.37373598146    -1.37361533944    -1.37378662002    -1.37439938084    -1.37546049366    
  -1.37670792369    -1.37784985641    -1.37859495469    -1.37878378647    -1.37856794808    
  -1.37814384134    -1.30850557083    -1.31002838856    -1.31076882457    -1.31274956664    
  -1.31527234496    -1.31763888974    -1.31928601181    -1.32033929896    -1.32114331247    
  -1.32204270471    -1.32332224016    -1.32487528882    -1.32643800737    -1.32774612713    
  -1.32857422089    -1.32902588265    -1.32937035908    -1.32987815758    -1.33079605251    
  -1.33210553135    -1.33362183562    -1.33515764843    -1.33653230108    -1.33766582326    
  -1.33855639188    -1.3392042308    -1.33961276951    -1.33985381402    -1.34006469814    
  -1.34038539135    -1.34095216667    -1.34178382512    -1.34276021274    -1.34375314453    
  -1.34463643566    -1.34538706972    -1.34613294237    -1.34701393335    -1.34816855876    
  -1.34960426486    -1.3510904104    -1.35237116591    -1.35319132431    -1.35343857425    
  -1.35332497373    -1.35310734333    -1.35304242051    -1.35330831998    -1.3538583931    
  -1.35460608498    -1.35546484091    -1.3563554999    -1.35722572161    -1.35802924537    
  -1.35871981052    -1.35926795426    -1.35972182557    -1.3601519731    -1.36062894771    
  -1.36121140155    -1.36188772547    -1.36262061179    -1.36337271456    -1.36411021046    
  -1.3648260955    -1.3655257004    -1.36621442115    -1.36689378881    -1.3675268209    
  -1.36805442953    -1.36841726407    -1.36856321921    -1.36853686188    -1.368451596    
  -1.36842230182    -1.36855986297    -1.36890135892    -1.36941891533    -1.3700824404    
  -1.37086064785    -1.37169021532    -1.37247302326    -1.37310920424    -1.37350143048    
  -1.37365867198    -1.37373252934    -1.37388460689    -1.3742749246    -1.37494766932    
  -1.37575439745    -1.37652846484    -1.37710368136    -1.37738415839    -1.37741970056    
  -1.37727820486    -1.37702760839    -1.37675515601    -1.37659832148    -1.37670264212    
  -1.37721363561    -1.3781913942    -1.37941481436    -1.38060501818    -1.38148312778    
  -1.38184217381    -1.38177639762    -1.38145889599    -1.38106276603    -1.38074518212    
  -1.38057824431    -1.38060575582    -1.38087150082    -1.38139979864    -1.38208144736    
  -1.38275121854    -1.38324369172    -1.3834171822    -1.38334164405    -1.38319818092    
  -1.38316888207    -1.38341730909    -1.38388808567    -1.3843828793    -1.38470089704    
  -1.38465442679    -1.38426653054    -1.38373058161    -1.38324482614    -1.38300194154    
  -1.38306708724    -1.38337821692    -1.38386777792    -1.38446770202    -1.3850920909    
  -1.38563308851    -1.38598148652    -1.38602991647    -1.38577650035    -1.38538011154    
  -1.38501313396    -1.38484696791    -1.38494406206    -1.38516047603    -1.3853292681    
  -1.38528383447    -1.3849534903    -1.38449493031    -1.38409780021    -1.38395168646    
  -1.38416272981    -1.38458756901    -1.38503641235    -1.3853194684    -1.38530957581    
  -1.38511746291    -1.38491033043    -1.38485537911    -1.38507329084    -1.38545961566    
  -1.38584189005    -1.38604763606    -1.38593382354    -1.385539788    -1.38497458809    
  -1.3843474226    -1.38376425234    -1.38330512351    -1.38303764267    -1.38302933771    
  -1.38333286642    -1.38384454332    -1.38436714449    -1.38470218552    -1.38466661926    
  -1.38429589871    -1.38378751247    -1.38334277616    -1.38315328659    -1.38321875362    
  -1.38336309078    -1.38340371857    -1.38316345993    -1.38262184654    -1.38193559893    
  -1.38127095541    -1.380792335    -1.3805803393    -1.38059844358    -1.38080140736    
  -1.38114346664    -1.38153550204    -1.38181324067    -1.38180491679    -1.38133947111    
  -1.3803764147    -1.37915767237    -1.37796203817    -1.37706814854    -1.37665279496    
  -1.37661582718    -1.37681046652    -1.37708993597    -1.37732298232    -1.37743183986    
  -1.3773502541    -1.37701197054    -1.37638582455    -1.37559457946    -1.37480319437    
  -1.37417662951    -1.37384186415    -1.37371318691    -1.37363089268    -1.37343520163    
  -1.37298904959    -1.37231899467    -1.3715232963    -1.37070051854    -1.36994484816    
  -1.3693093604    -1.36882461361    -1.36852093583    -1.3684221196    -1.3684702316    
  -1.36855174622    -1.36855207361    -1.36836188226    -1.36796211007    -1.36740963382    
  -1.36676369564    -1.36608229916    -1.36539293468    -1.36469140845    -1.36397205398    
  -1.36322968483    -1.36247724282    -1.3617509142    -1.36108840839    -1.36052681737    
  -1.36006366804    -1.3596336684    -1.35916594433    -1.35858990632    -1.35787165253    
  -1.35704977438    -1.35617136805    -1.35528355736    -1.35444336933    -1.35373235419    
  -1.35323579242    -1.35303893255    -1.35315496267    -1.353371658    -1.35343283788    
  -1.35308232164    -1.35214977299    -1.35080630271    -1.34930790351    -1.34791056808    
  -1.34681859329    -1.34597417662    -1.34523665035    -1.34446531448    -1.34354633849    
  -1.34254046481    -1.34157818265    -1.34079016424    -1.34028699495    -1.34001016243    
  -1.33981645831    -1.33956204205    -1.33911075807    -1.33841177766    -1.33746747478    
  -1.33628103072    -1.33486210292    -1.33331771166    -1.33183006336    -1.33058331216    
  -1.32975122999    -1.32928802062    -1.32893849627    -1.32843912369    -1.32753344568    
  -1.32618761558    -1.32462981546    -1.32310325289    -1.32184714656    -1.32089754573    
  -1.3199947878    -1.31885589153    -1.31720071455    -1.31501746199    -1.31277930476    
  -1.31101039219    -1.31004263523    -1.31108079791    -1.3132225939    -1.31576975339    
  -1.31802427176    -1.31952810782    -1.32050547689    -1.32130103133    -1.32225941932    
  -1.32361294817    -1.32518869013    -1.32672237652    -1.32794973866    -1.32868386676    
  -1.32909325742    -1.32944840932    -1.33001982986    -1.33102721109    -1.33239191572    
  -1.33392678213    -1.33544449343    -1.3367732995    -1.33785925063    -1.33870229201    
  -1.33930264749    -1.3396689491    -1.33989307329    -1.3401144334    -1.3404729989    
  -1.34109748798    -1.3419675638    -1.34295727908    -1.34393844879    -1.34479035409    
  -1.34552904626    -1.34629035576    -1.34721416232    -1.34843348977    -1.34989920477    
  -1.35136528555    -1.35257590265    -1.35328027863    -1.35343668474    -1.35328250803    
  -1.35307456907    -1.3530680005    -1.35339633418    -1.35399190008    -1.35476814328    
  -1.35563858883    -1.3565288888    -1.35738969687    -1.35817475235    -1.35883785737    
  -1.35936199779    -1.35980567257    -1.36023943253    -1.36073382308    -1.3613375589    
  -1.36202789332    -1.36276748038    -1.36351897416    -1.36425186789    -1.36496414169    
  -1.36566119152    -1.36634841334    -1.36702318088    -1.36764024987    -1.36814027867    
  -1.36846391663    -1.36856813517    -1.36852120541    -1.36843785268    -1.36843295721    
  -1.36861142195    -1.36898974684    -1.36953824231    -1.37022681655    -1.37102197248    
  -1.37185024825    -1.37261221738    -1.37320801245    -1.37354642065    -1.37367462144    
  -1.373751069    -1.37393736764    -1.37438816685    -1.37510025279    -1.37591370479    
  -1.37666187869    -1.37718107224    -1.37740826385    -1.37740381013    -1.37723560803    
  -1.3769720703    -1.37671079261    -1.37659361888    -1.37676608643    -1.37737247528    
  -1.37842026785    -1.37965913705    -1.38081020499    -1.38159503573    -1.3818573068    
  -1.38172863576    -1.38138211969    -1.31002838856    -1.31201790703    -1.31285923502    
  -1.31507652964    -1.3178867519    -1.32050686284    -1.32230469144    -1.32341734339    
  -1.32422649008    -1.32511390462    -1.32639595781    -1.32796158672    -1.32952803901    
  -1.33081209782    -1.33157240107    -1.33192213326    -1.33215298282    -1.33255799672    
  -1.33340527706    -1.33468409314    -1.33620897954    -1.3377917818    -1.33925032835    
  -1.34049306886    -1.34149877982    -1.34224807981    -1.34272537954    -1.34299597514    
  -1.34320267841    -1.34349141897    -1.34400461126    -1.34477295909    -1.34569502629    
  -1.34666173948    -1.34756568549    -1.34838508232    -1.34922340701    -1.35019408354    
  -1.35140932289    -1.35286474254    -1.35434416866    -1.35560902117    -1.35642131809    
  -1.35668038461    -1.35659722953    -1.35642587363    -1.35642025136    -1.35675263492    
  -1.35736184405    -1.35814524949    -1.35900022247    -1.35984014994    -1.36063651611    
  -1.36137397458    -1.36203717898    -1.36261906252    -1.36315081297    -1.36367465881    
  -1.36423282959    -1.36485949645    -1.36554124578    -1.36624725951    -1.36694669369    
  -1.3676130189    -1.3682525544    -1.36888672717    -1.36953704411    -1.37021970515    
  -1.37089802658    -1.37150497136    -1.37197314166    -1.37224178504    -1.37233881612    
  -1.37235528634    -1.3723836012    -1.37251361957    -1.37278817235    -1.37320870195    
  -1.37377523777    -1.37448605297    -1.37529231679    -1.37609403481    -1.37678864267    
  -1.37727588113    -1.37755197455    -1.37774260916    -1.37798255124    -1.37840523512    
  -1.37904671004    -1.37978107397    -1.38046712302    -1.38096404811    -1.38119217097    
  -1.38119850124    -1.38104578077    -1.38079679068    -1.38053318634    -1.38038572453    
  -1.38049304452    -1.38099376715    -1.38194628634    -1.38314491222    -1.38432969638    
  -1.38524069042    -1.38568189567    -1.38572518624    -1.38551256401    -1.38518603111    
  -1.38487824258    -1.38467191219    -1.38463314267    -1.38482802553    -1.38530078755    
  -1.38594567196    -1.38659398778    -1.38707682829    -1.38724850435    -1.38717034505    
  -1.38701240239    -1.38694569247    -1.38712483538    -1.38751070252    -1.38793765648    
  -1.38823788251    -1.38825412348    -1.38799923966    -1.38762355087    -1.38728130983    
  -1.38712251653    -1.38719978873    -1.38746860036    -1.38788022027    -1.38838536035    
  -1.38891546976    -1.38937827567    -1.3896800443    -1.38972864729    -1.38952400538    
  -1.38920630795    -1.38892753352    -1.38883874467    -1.38898955748    -1.38923741604    
  -1.3894183475    -1.38936872106    -1.38902199459    -1.38854177825    -1.38812503503    
  -1.38796866657    -1.38818320933    -1.38862096842    -1.389086194    -1.38938313653    
  -1.38937885701    -1.38917899153    -1.3889458113    -1.38884158752    -1.38898549225    
  -1.38928811567    -1.38959703421    -1.38975981094    -1.38964998379    -1.38930194897    
  -1.388811603    -1.388274966    -1.3877842032    -1.38740062735    -1.38717074133    
  -1.38714095436    -1.3873465281    -1.38770551951    -1.38806586329    -1.38827454919    
  -1.38819096952    -1.3878500629    -1.38741694989    -1.38705982571    -1.38693825544    
  -1.3870414125    -1.38720236667    -1.38724842209    -1.38701220292    -1.38648065208    
  -1.385815199    -1.38518664573    -1.38476374059    -1.38462061417    -1.38469917841    
  -1.38493150638    -1.38524937261    -1.3855598269    -1.38572706043    -1.38561099139    
  -1.38507216407    -1.38408684955    -1.38288162709    -1.38171575381    -1.38084833884    
  -1.38044286929    -1.38040281214    -1.38058785509    -1.38085768744    -1.38108748039    
  -1.38120574805    -1.38115248464    -1.38086768439    -1.38032162679    -1.37961744303    
  -1.37889468256    -1.37829289575    -1.37791961189    -1.3777030443    -1.37750902343    
  -1.3772033167    -1.37667243264    -1.37595227902    -1.37514423219    -1.37434994666    
  -1.37366462654    -1.37312289359    -1.37272618852    -1.3724756126    -1.37236802785    
  -1.37234728452    -1.37232117278    -1.37219679243    -1.37188610943    -1.37138462588    
  -1.37075811844    -1.37007455271    -1.36940017298    -1.36875881649    -1.36813028625    
  -1.36749233847    -1.36682331135    -1.36612352086    -1.36542146329    -1.36474748155    
  -1.36413151303    -1.36357751012    -1.3630481678    -1.36250251492    -1.36189971601    
  -1.36121642274    -1.36046384071    -1.35965722931    -1.35881191072    -1.35796572108    
  -1.35721224734    -1.35665355682    -1.35639168356    -1.35645354532    -1.35663108816    
  -1.35667043825    -1.35631772176    -1.35540150611    -1.3540782699    -1.35258600868    
  -1.35116271802    -1.35000063823    -1.34906002919    -1.34822780802    -1.34739086323    
  -1.34645825053    -1.34548304738    -1.34457587197    -1.34384749348    -1.34338974665    
  -1.34313506999    -1.34293606516    -1.34264473791    -1.34212187824    -1.34132580796    
  -1.34027566161    -1.33899149651    -1.33749933124    -1.33591480616    -1.33442276994    
  -1.33320986411    -1.33245176842    -1.33209233793    -1.33185434767    -1.33145176132    
  -1.33060618921    -1.32927980105    -1.32771792251    -1.32618211622    -1.3249295358    
  -1.32399276571    -1.32307753135    -1.32186378334    -1.32003474111    -1.31758261154    
  -1.31505801303    -1.31307026285    -1.31203721069    -1.31320949045    -1.31560447218    
  -1.31843911689    -1.32093068175    -1.32256443275    -1.32358763006    -1.32438204678    
  -1.32532945146    -1.32668892751    -1.32827700959    -1.32981048086    -1.33100612445    
  -1.33166408388    -1.33196748136    -1.33220935446    -1.33268275016    -1.33362730539    
  -1.3349690946    -1.33652012655    -1.33809224678    -1.33951130979    -1.34070918188    
  -1.34166623089    -1.34236307539    -1.34279028036    -1.34303688415    -1.3432481585    
  -1.34357003302    -1.34413773784    -1.34494475842    -1.34588414937    -1.34684683733    
  -1.34772994596    -1.34854411994    -1.34939942232    -1.35040927709    -1.35168100954    
  -1.35315990664    -1.3546161128    -1.35581104794    -1.35651098646    -1.35668307576    
  -1.3565626631    -1.35640376924    -1.35645866176    -1.3568533065    -1.35750468913    
  -1.35831018038    -1.35916732419    -1.3599999333    -1.36078597735    -1.36151010995    
  -1.36215701565    -1.36272576358    -1.36325264296    -1.36377988335    -1.36434971061    
  -1.36498956569    -1.36567849203    -1.36638564567    -1.36708018266    -1.36773963574    
  -1.36837642878    -1.36901206865    -1.36966806225    -1.37035490097    -1.37102455669    
  -1.37160964395    -1.37204276491    -1.37227149223    -1.37234548184    -1.37235699718    
  -1.37239844374    -1.37255586949    -1.37285899209    -1.37330809724    -1.37390321439    
  -1.37463936605    -1.37545281297    -1.3762416391    -1.37690328008    -1.3773430271    
  -1.37759178615    -1.37778146427    -1.37804682776    -1.37851679576    -1.37918756606    
  -1.37992358746    -1.38058365605    -1.38102912611    -1.38120889896    -1.38117915973    